Created on Tue Feb 06 14:54:27 2018 

        2624 atoms
        3008 bonds
        4992 angles
        6528 dihedrals
        4224 impropers

           4 atom types
           6 bond types
          13 angle types
           4 dihedral types
           1 improper types
           0.000000  26.432001 xlo xhi
           0.000000  34.243416 ylo yhi
           0.000000  36.762000 zlo zhi
           4.940655   0.002567   0.000927 xy xz yz

Masses

    1    65.380000000 # Zn3f2
    2     1.007940000 # H_
    3    12.010700000 # C_R
    4    14.006700000 # N_R

Bond Coeffs

    1      154.048673        1.928536  # Zn3f2 N_R
    2      357.440381        1.081418  # H_ C_R
    3      462.655054        1.379256  # C_R C_R
    4      663.718927        1.345073  # C_R N_R
    5      391.669513        1.458000  # C_R C_R
    6      929.109299        1.322497  # N_R N_R

Angle Coeffs

    1                      fourier       49.333327        0.343737        0.374972        0.281246 # N_R Zn3f2 N_R
    2              cosine/periodic       76.817955              -1               3 # H_ C_R C_R
    3              cosine/periodic      109.704024              -1               3 # H_ C_R N_R
    4              cosine/periodic      165.695700              -1               3 # C_R C_R N_R
    5              cosine/periodic      117.010657              -1               3 # C_R C_R C_R
    6              cosine/periodic      101.626578              -1               3 # C_R C_R C_R
    7              cosine/periodic      143.630586              -1               3 # C_R C_R N_R
    8              cosine/periodic      234.844275              -1               3 # N_R C_R N_R
    9              cosine/periodic       33.704159              -1               3 # Zn3f2 N_R C_R
   10              cosine/periodic      132.654363              -1               3 # C_R N_R C_R
   11              cosine/periodic       46.387178              -1               3 # N_R N_R Zn3f2
   12              cosine/periodic      255.585151              -1               3 # N_R N_R N_R
   13              cosine/periodic      184.094783              -1               3 # N_R N_R C_R

Dihedral Coeffs

    1        1.497136              -1               2 # H_ C_R C_R H_
    2        0.555556              -1               2 # C_R C_R C_R C_R
    3        2.245703              -1               2 # N_R C_R N_R N_R
    4        3.368555              -1               2 # N_R N_R N_R C_R

Improper Coeffs

    1        2.000000        1.000000       -1.000000        0.000000               0 # N_R C_R H_ C_R

Pair Coeffs

    1        0.124000        2.461553 # Zn3f2 Zn3f2
    2        0.044000        2.571134 # H_ H_
    3        0.105000        3.430851 # C_R C_R
    4        0.069000        3.260689 # N_R N_R

Atoms

       1      444        1     0.64343    3.43866   11.98506    9.52669
       2      444        1     0.64562    6.85972   13.69602    0.33610
       3      444        1     0.64570    5.62529    5.13540    8.85468
       4      444        1     0.64335    2.20422    3.42445   18.04450
       5      444        2     0.08245    6.16512   13.25669   10.24208
       6      444        2     0.12907    7.18882   15.44875   10.17157
       7      444        2     0.13151    3.59169   16.92238    8.23465
       8      444        2     0.09591    2.69444   14.62705    8.38889
       9      444        2     0.07030    4.68668   10.31709    7.39957
      10      444        2     0.13721    6.66230    8.86529    7.14036
      11      444        2     0.14661    7.30011    9.24890   11.41300
      12      444        2     0.08188    5.28469   10.65890   11.49399
      13      444        2     0.09866    6.03329   14.43074    6.69511
      14      444        2     0.11763    6.06904   10.66559    4.62332
      15      444        2     0.10271    3.97702   11.29875    3.43592
      16      444        2     0.10762    3.95976   15.08193    5.47239
      17      444        2     0.08310    4.14283   12.41945    1.05430
      18      444        2     0.12896    3.12281   10.22591    0.98491
      19      444        2     0.13160    6.72149    8.75771   17.42565
      20      444        2     0.09603    7.61552   11.05513   17.57913
      21      444        2     0.07073    5.62816   15.36592   16.59172
      22      444        2     0.13695    3.65385   16.82073   16.33156
      23      444        2     0.14658    3.01228   16.43717    2.22316
      24      444        2     0.08193    5.02690   15.02443    2.30485
      25      444        2     0.09835    4.28786   11.25327   15.88109
      26      444        2     0.11748    4.25303   15.01828   13.80908
      27      444        2     0.10283    6.34441   14.38411   12.62106
      28      444        2     0.10766    6.36092   10.60119   14.65793
      29      444        2     0.08310    2.90843    3.85891    8.13639
      30      444        2     0.12886    1.88839    1.66534    8.20565
      31      444        2     0.13163    5.48570    0.19657   10.14583
      32      444        2     0.09586    6.37972    2.49399    9.99252
      33      444        2     0.07072    4.39253    6.80537   10.98002
      34      444        2     0.13692    2.41818    8.26019   11.23993
      35      444        2     0.14649    1.77775    7.87602    6.96745
      36      444        2     0.08187    3.79239    6.46333    6.88602
      37      444        2     0.09826    3.05288    2.69229   11.69044
      38      444        2     0.11752    3.01764    6.45735   13.76239
      39      444        2     0.10281    5.10907    5.82345   14.95041
      40      444        2     0.10770    5.12600    2.04050   12.91361
      41      444        2     0.08251    4.93072    4.69615   17.32917
      42      444        2     0.12901    5.95441    6.88819   17.39982
      43      444        2     0.13154    2.35591    8.36124    0.95583
      44      444        2     0.09600    1.45867    6.06592    0.80147
      45      444        2     0.07025    3.45101    1.75648    1.79062
      46      444        2     0.13729    5.42658    0.30470    2.05009
      47      444        2     0.14656    6.06564    0.68783   16.15833
      48      444        2     0.08191    4.05021    2.09781   16.07709
      49      444        2     0.09855    4.79824    5.86973    2.49526
      50      444        2     0.11759    4.83357    2.10461    4.56713
      51      444        2     0.10271    2.74164    2.73809    5.75458
      52      444        2     0.10762    2.72483    6.52124    3.71807
      53      444        3     0.15267    5.60360   14.08818    9.81621
      54      444        3    -0.18332    6.18423   15.35035    9.76599
      55      444        3     0.11516    5.48322   16.43519    9.21638
      56      444        3    -0.19243    4.19907   16.15416    8.70872
      57      444        3     0.12941    3.67927   14.87054    8.79220
      58      444        3     0.14235    5.31727   10.07412    8.25461
      59      444        3    -0.17133    6.43025    9.25653    8.12694
      60      444        3     0.10252    7.22484    8.96526    9.24768
      61      444        3    -0.17970    6.78059    9.46734   10.48417
      62      444        3     0.13045    5.65307   10.27139   10.54485
      63      444        3     0.31981    7.38824   12.08204    6.46245
      64      444        3     0.00343    6.18722   12.50303    5.74362
      65      444        3    -0.10408    5.57554   13.74438    5.98384
      66      444        3    -0.10440    5.60370   11.63422    4.80332
      67      444        3     0.32898    2.65679   13.65133    3.60054
      68      444        3    -0.00117    3.83885   13.24224    4.35793
      69      444        3    -0.10452    4.44399   11.99456    4.13019
      70      444        3    -0.10999    4.42031   14.10941    5.30053
      71      444        3     0.15339    4.70516   11.58888    0.62758
      72      444        3    -0.18351    4.12668   10.32591    0.57806
      73      444        3     0.11538    4.82856    9.24211    0.02755
      74      444        3    -0.19246    6.11343    9.52524   17.90006
      75      444        3     0.12986    6.63132   10.80980   17.98294
      76      444        3     0.14277    4.99669   15.60980   17.44587
      77      444        3    -0.17104    3.88522   16.42853   17.31788
      78      444        3     0.10301    3.08936   16.71842    0.05764
      79      444        3    -0.17954    3.53205   16.21744    1.29487
      80      444        3     0.13141    4.65828   15.41240    1.35604
      81      444        3     0.32706    2.93440   13.60250   15.64927
      82      444        3     0.00134    4.13461   13.18099   14.92954
      83      444        3    -0.10166    4.74574   11.93937   15.16964
      84      444        3    -0.10332    4.71802   14.04943   13.98893
      85      444        3     0.32544    7.66431   12.03137   12.78601
      86      444        3    -0.00026    6.48220   12.44072   13.54319
      87      444        3    -0.10593    5.87732   13.68852   13.31545
      88      444        3    -0.11096    5.90062   11.57382   14.48601
      89      444        3     0.15354    3.47074    3.02831    8.56306
      90      444        3    -0.18355    2.89226    1.76533    8.61249
      91      444        3     0.11553    3.59413    0.68150    9.16297
      92      444        3    -0.19265    4.87764    0.96413    9.67148
      93      444        3     0.13022    5.39553    2.24868    9.58867
      94      444        3     0.14291    3.76100    7.04902   10.12585
      95      444        3    -0.17101    2.64951    7.86777   10.25369
      96      444        3     0.10306    1.85492    8.15782    9.13291
      97      444        3    -0.17931    2.29759    7.65655    7.89578
      98      444        3     0.13140    3.42380    6.85150    7.83477
      99      444        3     0.32689    1.69910    5.04143   11.92223
     100      444        3     0.00173    2.89939    4.62006   12.64194
     101      444        3    -0.10171    3.51066    3.37849   12.40188
     102      444        3    -0.10346    3.48274    5.48857   13.58253
     103      444        3     0.32530    6.42932    3.47081   14.78544
     104      444        3     0.00004    5.24712    3.88005   14.02831
     105      444        3    -0.10596    4.64208    5.12780   14.25603
     106      444        3    -0.11114    4.66559    3.01308   13.08551
     107      444        3     0.15266    4.36920    5.52761   17.75511
     108      444        3    -0.18323    4.94983    6.78977   17.80540
     109      444        3     0.11527    4.24881    7.87458   18.35506
     110      444        3    -0.19260    2.96330    7.59306    0.48173
     111      444        3     0.12927    2.44350    6.30945    0.39817
     112      444        3     0.14247    4.08156    1.51333    0.93559
     113      444        3    -0.17157    5.19450    0.69572    1.06341
     114      444        3     0.10275    5.99041    0.40465   18.32371
     115      444        3    -0.17970    5.54613    0.90646   17.08712
     116      444        3     0.13041    4.41861    1.71051   17.02630
     117      444        3     0.31983    6.15289    3.52096    2.72798
     118      444        3     0.00351    4.95194    3.94205    3.44682
     119      444        3    -0.10397    4.34042    5.18346    3.20657
     120      444        3    -0.10459    4.36834    3.07330    4.38712
     121      444        3     0.32887    1.42179    5.09078    5.58996
     122      444        3    -0.00109    2.60373    4.68156    4.83249
     123      444        3    -0.10423    3.20871    3.43382    5.06029
     124      444        3    -0.11014    3.18526    5.54866    3.88990
     125      444        4    -0.27680    4.36041   13.84586    9.35459
     126      444        4    -0.28400    4.93799   10.60214    9.44239
     127      444        4    -0.03589    2.30107   11.86606    7.90519
     128      444        4    -0.08980    2.48921   10.90263    6.98684
     129      444        4    -0.33175    8.14686   11.02064    6.07444
     130      444        4    -0.35845    7.84911   12.63435    7.60492
     131      444        4    -0.03434    7.79461   13.81155    2.07692
     132      444        4    -0.11373    7.54909   14.79272    2.96412
     133      444        4    -0.33476    8.46651   14.70646    3.92822
     134      444        4    -0.36188    2.26262   13.07581    2.44460
     135      444        4    -0.27733    5.94734   11.83297    0.16447
     136      444        4    -0.28408    5.37180   15.08094    0.25311
     137      444        4    -0.03662    8.00429   13.81518   17.09709
     138      444        4    -0.08916    7.81915   14.78055   16.18019
     139      444        4    -0.33747    2.17397   14.66249   15.26084
     140      444        4    -0.36570    2.47642   13.05196   16.79367
     141      444        4    -0.02706    2.51182   11.87027   11.27029
     142      444        4    -0.12181    2.76031   10.89139   12.15918
     143      444        4    -0.32777    1.84447   10.97872   13.12470
     144      444        4    -0.35927    8.06105   12.60884   11.63188
     145      444        4    -0.27752    4.71291    3.27237    9.02619
     146      444        4    -0.28426    4.13740    6.52036    8.93772
     147      444        4    -0.03716    6.76882    5.25399   10.47452
     148      444        4    -0.08884    6.58369    6.21934   11.39142
     149      444        4    -0.33762    0.93860    6.10137   12.31069
     150      444        4    -0.36544    1.24108    4.49085   10.77786
     151      444        4    -0.02727    1.27703    3.30983   16.30099
     152      444        4    -0.12185    1.52542    2.33091   15.41214
     153      444        4    -0.32767    0.60951    2.41821   14.44669
     154      444        4    -0.35905    6.82618    4.04832   15.93951
     155      444        4    -0.27679    3.12599    5.28526   18.21669
     156      444        4    -0.28397    3.70358    2.04154   18.12870
     157      444        4    -0.03618    1.06562    3.30486    1.28516
     158      444        4    -0.08958    1.25374    2.34141    2.20350
     159      444        4    -0.33179    6.91149    2.45954    3.11597
     160      444        4    -0.35839    6.61369    4.07319    1.58545
     161      444        4    -0.03423    6.55979    5.25105    7.11372
     162      444        4    -0.11371    6.31419    6.23222    6.22655
     163      444        4    -0.33463    7.23150    6.14590    5.26231
     164      444        4    -0.36206    1.02773    4.51530    6.74596
     165      444        1     0.64343    3.43994   11.98552   27.90769
     166      444        1     0.64562    6.86100   13.69649   18.71710
     167      444        1     0.64570    5.62657    5.13586   27.23568
     168      444        1     0.64335    2.20551    3.42492   36.42550
     169      444        2     0.08245    6.16640   13.25715   28.62308
     170      444        2     0.12907    7.19011   15.44921   28.55257
     171      444        2     0.13151    3.59298   16.92284   26.61565
     172      444        2     0.09591    2.69572   14.62751   26.76989
     173      444        2     0.07030    4.68797   10.31756   25.78057
     174      444        2     0.13721    6.66359    8.86575   25.52136
     175      444        2     0.14661    7.30140    9.24937   29.79400
     176      444        2     0.08188    5.28598   10.65936   29.87499
     177      444        2     0.09866    6.03458   14.43120   25.07611
     178      444        2     0.11763    6.07033   10.66605   23.00432
     179      444        2     0.10271    3.97831   11.29922   21.81692
     180      444        2     0.10762    3.96104   15.08239   23.85339
     181      444        2     0.08310    4.14411   12.41991   19.43530
     182      444        2     0.12896    3.12410   10.22638   19.36591
     183      444        2     0.13160    6.72277    8.75818   35.80665
     184      444        2     0.09603    7.61681   11.05559   35.96013
     185      444        2     0.07073    5.62944   15.36638   34.97272
     186      444        2     0.13695    3.65513   16.82119   34.71256
     187      444        2     0.14658    3.01356   16.43763   20.60416
     188      444        2     0.08193    5.02818   15.02489   20.68585
     189      444        2     0.09835    4.28914   11.25373   34.26209
     190      444        2     0.11748    4.25431   15.01874   32.19008
     191      444        2     0.10283    6.34569   14.38457   31.00206
     192      444        2     0.10766    6.36221   10.60165   33.03893
     193      444        2     0.08310    2.90971    3.85937   26.51739
     194      444        2     0.12886    1.88968    1.66581   26.58665
     195      444        2     0.13163    5.48698    0.19704   28.52683
     196      444        2     0.09586    6.38101    2.49446   28.37352
     197      444        2     0.07072    4.39382    6.80583   29.36102
     198      444        2     0.13692    2.41946    8.26065   29.62093
     199      444        2     0.14649    1.77904    7.87649   25.34845
     200      444        2     0.08187    3.79367    6.46379   25.26702
     201      444        2     0.09826    3.05416    2.69275   30.07144
     202      444        2     0.11752    3.01893    6.45782   32.14339
     203      444        2     0.10281    5.11035    5.82392   33.33141
     204      444        2     0.10770    5.12728    2.04096   31.29461
     205      444        2     0.08251    4.93200    4.69661   35.71017
     206      444        2     0.12901    5.95569    6.88866   35.78082
     207      444        2     0.13154    2.35720    8.36170   19.33683
     208      444        2     0.09600    1.45995    6.06638   19.18247
     209      444        2     0.07025    3.45229    1.75694   20.17162
     210      444        2     0.13729    5.42786    0.30516   20.43109
     211      444        2     0.14656    6.06693    0.68829   34.53933
     212      444        2     0.08191    4.05149    2.09828   34.45809
     213      444        2     0.09855    4.79952    5.87019   20.87626
     214      444        2     0.11759    4.83485    2.10508   22.94813
     215      444        2     0.10271    2.74293    2.73856   24.13558
     216      444        2     0.10762    2.72611    6.52170   22.09907
     217      444        3     0.15267    5.60488   14.08864   28.19721
     218      444        3    -0.18332    6.18552   15.35082   28.14699
     219      444        3     0.11516    5.48451   16.43565   27.59738
     220      444        3    -0.19243    4.20035   16.15462   27.08972
     221      444        3     0.12941    3.68056   14.87101   27.17320
     222      444        3     0.14235    5.31855   10.07459   26.63561
     223      444        3    -0.17133    6.43153    9.25699   26.50794
     224      444        3     0.10252    7.22613    8.96573   27.62868
     225      444        3    -0.17970    6.78188    9.46780   28.86517
     226      444        3     0.13045    5.65436   10.27185   28.92585
     227      444        3     0.31981    7.38952   12.08251   24.84345
     228      444        3     0.00343    6.18851   12.50350   24.12462
     229      444        3    -0.10408    5.57682   13.74484   24.36484
     230      444        3    -0.10440    5.60499   11.63468   23.18432
     231      444        3     0.32898    2.65807   13.65179   21.98154
     232      444        3    -0.00117    3.84013   13.24271   22.73893
     233      444        3    -0.10452    4.44528   11.99503   22.51119
     234      444        3    -0.10999    4.42159   14.10988   23.68153
     235      444        3     0.15339    4.70645   11.58934   19.00858
     236      444        3    -0.18351    4.12797   10.32637   18.95906
     237      444        3     0.11538    4.82984    9.24257   18.40855
     238      444        3    -0.19246    6.11471    9.52570   36.28106
     239      444        3     0.12986    6.63261   10.81026   36.36394
     240      444        3     0.14277    4.99798   15.61027   35.82687
     241      444        3    -0.17104    3.88651   16.42899   35.69888
     242      444        3     0.10301    3.09064   16.71889   18.43864
     243      444        3    -0.17954    3.53334   16.21790   19.67587
     244      444        3     0.13141    4.65956   15.41286   19.73704
     245      444        3     0.32706    2.93569   13.60296   34.03027
     246      444        3     0.00134    4.13590   13.18146   33.31054
     247      444        3    -0.10166    4.74702   11.93983   33.55064
     248      444        3    -0.10332    4.71931   14.04990   32.36993
     249      444        3     0.32544    7.66560   12.03183   31.16701
     250      444        3    -0.00026    6.48349   12.44118   31.92419
     251      444        3    -0.10593    5.87861   13.68899   31.69645
     252      444        3    -0.11096    5.90190   11.57428   32.86701
     253      444        3     0.15354    3.47202    3.02877   26.94406
     254      444        3    -0.18355    2.89354    1.76579   26.99349
     255      444        3     0.11553    3.59541    0.68197   27.54397
     256      444        3    -0.19265    4.87892    0.96459   28.05248
     257      444        3     0.13022    5.39681    2.24915   27.96967
     258      444        3     0.14291    3.76229    7.04949   28.50685
     259      444        3    -0.17101    2.65080    7.86823   28.63469
     260      444        3     0.10306    1.85621    8.15828   27.51391
     261      444        3    -0.17931    2.29887    7.65701   26.27678
     262      444        3     0.13140    3.42508    6.85196   26.21577
     263      444        3     0.32689    1.70038    5.04189   30.30323
     264      444        3     0.00173    2.90068    4.62053   31.02294
     265      444        3    -0.10171    3.51195    3.37896   30.78288
     266      444        3    -0.10346    3.48402    5.48903   31.96353
     267      444        3     0.32530    6.43061    3.47127   33.16644
     268      444        3     0.00004    5.24841    3.88051   32.40931
     269      444        3    -0.10596    4.64336    5.12826   32.63703
     270      444        3    -0.11114    4.66687    3.01355   31.46651
     271      444        3     0.15266    4.37049    5.52807   36.13611
     272      444        3    -0.18323    4.95111    6.79023   36.18640
     273      444        3     0.11527    4.25009    7.87505   36.73606
     274      444        3    -0.19260    2.96458    7.59353   18.86273
     275      444        3     0.12927    2.44479    6.30991   18.77917
     276      444        3     0.14247    4.08284    1.51379   19.31659
     277      444        3    -0.17157    5.19579    0.69618   19.44441
     278      444        3     0.10275    5.99169    0.40512   36.70471
     279      444        3    -0.17970    5.54741    0.90692   35.46812
     280      444        3     0.13041    4.41990    1.71097   35.40730
     281      444        3     0.31983    6.15417    3.52142   21.10898
     282      444        3     0.00351    4.95323    3.94252   21.82782
     283      444        3    -0.10397    4.34170    5.18392   21.58757
     284      444        3    -0.10459    4.36963    3.07377   22.76812
     285      444        3     0.32887    1.42307    5.09125   23.97096
     286      444        3    -0.00109    2.60501    4.68202   23.21349
     287      444        3    -0.10423    3.20999    3.43428   23.44129
     288      444        3    -0.11014    3.18655    5.54912   22.27090
     289      444        4    -0.27680    4.36170   13.84632   27.73559
     290      444        4    -0.28400    4.93927   10.60260   27.82339
     291      444        4    -0.03589    2.30235   11.86652   26.28619
     292      444        4    -0.08980    2.49049   10.90309   25.36784
     293      444        4    -0.33175    8.14814   11.02111   24.45544
     294      444        4    -0.35845    7.85039   12.63481   25.98592
     295      444        4    -0.03434    7.79589   13.81202   20.45792
     296      444        4    -0.11373    7.55037   14.79318   21.34512
     297      444        4    -0.33476    8.46779   14.70693   22.30922
     298      444        4    -0.36188    2.26390   13.07627   20.82560
     299      444        4    -0.27733    5.94862   11.83343   18.54547
     300      444        4    -0.28408    5.37308   15.08141   18.63411
     301      444        4    -0.03662    8.00557   13.81565   35.47809
     302      444        4    -0.08916    7.82044   14.78101   34.56119
     303      444        4    -0.33747    2.17525   14.66295   33.64184
     304      444        4    -0.36570    2.47771   13.05242   35.17467
     305      444        4    -0.02706    2.51311   11.87073   29.65129
     306      444        4    -0.12181    2.76159   10.89185   30.54018
     307      444        4    -0.32777    1.84575   10.97918   31.50570
     308      444        4    -0.35927    8.06233   12.60930   30.01288
     309      444        4    -0.27752    4.71419    3.27284   27.40719
     310      444        4    -0.28426    4.13869    6.52082   27.31872
     311      444        4    -0.03716    6.77011    5.25446   28.85552
     312      444        4    -0.08884    6.58497    6.21980   29.77242
     313      444        4    -0.33762    0.93988    6.10184   30.69169
     314      444        4    -0.36544    1.24236    4.49131   29.15886
     315      444        4    -0.02727    1.27831    3.31030   34.68199
     316      444        4    -0.12185    1.52670    2.33137   33.79314
     317      444        4    -0.32767    0.61079    2.41867   32.82769
     318      444        4    -0.35905    6.82746    4.04878   34.32051
     319      444        4    -0.27679    3.12728    5.28573   36.59769
     320      444        4    -0.28397    3.70486    2.04200   36.50970
     321      444        4    -0.03618    1.06690    3.30533   19.66616
     322      444        4    -0.08958    1.25503    2.34188   20.58450
     323      444        4    -0.33179    6.91277    2.46001   21.49697
     324      444        4    -0.35839    6.61497    4.07366   19.96645
     325      444        4    -0.03423    6.56107    5.25151   25.49472
     326      444        4    -0.11371    6.31548    6.23268   24.60755
     327      444        4    -0.33463    7.23279    6.14636   23.64331
     328      444        4    -0.36206    1.02901    4.51576   25.12696
     329      444        1     0.64343    5.90898   29.10677    9.52669
     330      444        1     0.64562    9.33005   30.81773    0.33610
     331      444        1     0.64570    8.09561   22.25711    8.85468
     332      444        1     0.64335    4.67455   20.54616   18.04450
     333      444        2     0.08245    8.63545   30.37840   10.24208
     334      444        2     0.12907    9.65915   32.57045   10.17157
     335      444        2     0.13151    6.06202   34.04409    8.23465
     336      444        2     0.09591    5.16477   31.74875    8.38889
     337      444        2     0.07030    7.15701   27.43880    7.39957
     338      444        2     0.13721    9.13263   25.98699    7.14036
     339      444        2     0.14661    9.77044   26.37061   11.41300
     340      444        2     0.08188    7.75502   27.78060   11.49399
     341      444        2     0.09866    8.50362   31.55245    6.69511
     342      444        2     0.11763    8.53937   27.78730    4.62332
     343      444        2     0.10271    6.44735   28.42046    3.43592
     344      444        2     0.10762    6.43008   32.20364    5.47239
     345      444        2     0.08310    6.61316   29.54115    1.05430
     346      444        2     0.12896    5.59314   27.34762    0.98491
     347      444        2     0.13160    9.19182   25.87942   17.42565
     348      444        2     0.09603   10.08585   28.17683   17.57913
     349      444        2     0.07073    8.09849   32.48763   16.59172
     350      444        2     0.13695    6.12417   33.94243   16.33156
     351      444        2     0.14658    5.48260   33.55888    2.22316
     352      444        2     0.08193    7.49723   32.14613    2.30485
     353      444        2     0.09835    6.75819   28.37497   15.88109
     354      444        2     0.11748    6.72336   32.13999   13.80908
     355      444        2     0.10283    8.81473   31.50582   12.62106
     356      444        2     0.10766    8.83125   27.72290   14.65793
     357      444        2     0.08310    5.37876   20.98062    8.13639
     358      444        2     0.12886    4.35872   18.78705    8.20565
     359      444        2     0.13163    7.95602   17.31828   10.14583
     360      444        2     0.09586    8.85005   19.61570    9.99252
     361      444        2     0.07072    6.86286   23.92708   10.98002
     362      444        2     0.13692    4.88851   25.38190   11.23993
     363      444        2     0.14649    4.24808   24.99773    6.96745
     364      444        2     0.08187    6.26272   23.58504    6.88602
     365      444        2     0.09826    5.52320   19.81400   11.69044
     366      444        2     0.11752    5.48797   23.57906   13.76239
     367      444        2     0.10281    7.57940   22.94516   14.95041
     368      444        2     0.10770    7.59632   19.16220   12.91361
     369      444        2     0.08251    7.40105   21.81786   17.32917
     370      444        2     0.12901    8.42473   24.00990   17.39982
     371      444        2     0.13154    4.82624   25.48295    0.95583
     372      444        2     0.09600    3.92899   23.18762    0.80147
     373      444        2     0.07025    5.92134   18.87818    1.79062
     374      444        2     0.13729    7.89691   17.42641    2.05009
     375      444        2     0.14656    8.53597   17.80953   16.15833
     376      444        2     0.08191    6.52054   19.21952   16.07709
     377      444        2     0.09855    7.26857   22.99143    2.49526