Created on Tue Feb 06 14:51:13 2018 

        3776 atoms
        4096 bonds
        7168 angles
        9408 dihedrals
        4224 impropers

           6 atom types
          11 bond types
          23 angle types
           6 dihedral types
           1 improper types
           0.000000  35.330000 xlo xhi
           0.000000  31.059998 ylo yhi
           0.000000  39.539995 zlo zhi
          -0.011926   0.002760  -0.019322 xy xz yz

Masses

    1    65.380000000 # Zn3+2
    2     1.007940000 # H_
    3    12.010700000 # C_R
    4    12.010700000 # C_3
    5    14.006700000 # N_R
    6    15.999400000 # O_R

Bond Coeffs

    1      165.837318        1.881712  # Zn3+2 N_R
    2      160.291409        1.840266  # Zn3+2 O_R
    3      357.440381        1.081418  # H_ C_R
    4      331.069389        1.109401  # H_ C_3
    5      646.680887        1.311940  # C_R O_R
    6      391.669513        1.458000  # C_R C_R
    7      462.655054        1.379256  # C_R C_R
    8      663.718927        1.345073  # C_R N_R
    9      369.943935        1.486000  # C_R C_3
   10      349.795899        1.514000  # C_3 C_3
   11      529.724731        1.450075  # C_3 N_R

Angle Coeffs

    1                      fourier       50.968023        0.343737        0.374972        0.281246 # O_R Zn3+2 O_R
    2                      fourier       53.299639        0.343737        0.374972        0.281246 # N_R Zn3+2 O_R
    3                      fourier       55.784590        0.343737        0.374972        0.281246 # N_R Zn3+2 N_R
    4              cosine/periodic      217.450257              -1               3 # O_R C_R O_R
    5              cosine/periodic      137.761490              -1               3 # O_R C_R C_R
    6              cosine/periodic      101.626578              -1               3 # C_R C_R C_R
    7              cosine/periodic      117.010657              -1               3 # C_R C_R C_R
    8              cosine/periodic       76.817955              -1               3 # H_ C_R C_R
    9              cosine/periodic      165.695700              -1               3 # N_R C_R C_R
   10              cosine/periodic      109.704024              -1               3 # N_R C_R H_
   11              cosine/periodic      143.630586              -1               3 # N_R C_R C_R
   12              cosine/periodic      136.632200              -1               3 # N_R C_R C_3
   13              cosine/periodic      234.844275              -1               3 # N_R C_R N_R
   14                      fourier       61.342703        0.343737        0.374972        0.281246 # H_ C_3 H_
   15                      fourier       73.868412        0.343737        0.374972        0.281246 # H_ C_3 C_R
   16                      fourier      105.679036        0.343737        0.374972        0.281246 # H_ C_3 N_R
   17                      fourier      138.285829        0.343737        0.374972        0.281246 # C_3 C_3 N_R
   18                      fourier       69.847816        0.343737        0.374972        0.281246 # C_3 C_3 H_
   19                      fourier       93.452663        0.343737        0.374972        0.281246 # C_3 C_3 C_3
   20              cosine/periodic       36.261492              -1               3 # Zn3+2 N_R C_R
   21              cosine/periodic      132.654363              -1               3 # C_R N_R C_R
   22              cosine/periodic      109.494736              -1               3 # C_3 N_R C_R
   23              cosine/periodic       50.430477              -1               3 # Zn3+2 O_R C_R

Dihedral Coeffs

    1        0.555556              -1               2 # O_R C_R C_R C_R
    2        2.245703              -1               2 # C_R C_R O_R Zn3+2
    3        1.497136              -1               2 # C_R C_R C_R C_R
    4        0.083333               1               3 # N_R C_R C_3 H_
    5        0.066219               1               3 # H_ C_3 C_3 H_
    6        0.416667              -1               2 # H_ C_3 N_R C_R

Improper Coeffs

    1        2.000000        1.000000       -1.000000        0.000000               0 # O_R C_R O_R C_R

Pair Coeffs

    1        0.124000        2.461553 # Zn3+2 Zn3+2
    2        0.044000        2.571134 # H_ H_
    3        0.105000        3.430851 # C_R C_R
    4        0.105000        3.430851 # C_3 C_3
    5        0.069000        3.260689 # N_R N_R
    6        0.060000        3.118146 # O_R O_R

Atoms

       1      444        1     0.92010    3.82300    0.57133   14.66163
       2      444        1     0.92010   12.65424    0.57136   14.66183
       3      444        1     0.92010    0.59148   14.94844    4.77505
       4      444        1     0.92010    9.42205   14.94878    4.77683
       5      444        1     0.92010    5.01196    8.33790   14.99574
       6      444        1     0.92010   13.84416    8.33792   14.99574
       7      444        1     0.92010    8.23396    7.18357    5.11054
       8      444        1     0.92010   17.06554    7.18381    5.11074
       9      444        2     0.10981    0.44709    2.21565   16.84898
      10      444        2     0.10981    9.27953    2.21572   16.84938
      11      444        2     0.10981    8.04828    3.72052   18.47506
      12      444        2     0.10981   16.88055    3.72033   18.47585
      13      444        2     0.10981    0.05920    3.86974    1.03891
      14      444        2     0.10981    8.89104    3.86979    1.03931
      15      444        2     0.10981    4.59598   14.72981    3.11694
      16      444        2     0.10981   13.42676   14.72893    3.11793
      17      444        2     0.10981    6.73474   15.16876    1.84078
      18      444        2     0.10981   15.56568   15.16756    1.84059
      19      444        2     0.10981    6.58816    0.86673   19.44379
      20      444        2     0.10981   15.41979    0.86597   19.44557
      21      444        2     0.10981    4.51334    2.25742   12.02490
      22      444        2     0.10981   13.34487    2.25691   12.02510
      23      444        2     0.10981    6.01084    4.64269   12.18049
      24      444        2     0.10981   14.84282    4.64204   12.18030
      25      444        2     0.10981    6.10573    3.66124   16.92213
      26      444        2     0.10981   14.93795    3.66113   16.92193
      27      444        2     0.10981    5.10391    2.19290   16.84226
      28      444        2     0.10981   13.93618    2.19271   16.84226
      29      444        2     0.10981    6.85048    2.09662   16.53464
      30      444        2     0.10981   15.68277    2.09653   16.53444
      31      444        2     0.10981    6.90912    5.93653   14.04797
      32      444        2     0.10981   15.74115    5.93612   14.04737
      33      444        2     0.10981    6.58768    5.42747   15.70805
      34      444        2     0.10981   15.41962    5.42722   15.70726
      35      444        2     0.10981    8.55323    3.86818   15.63747
      36      444        2     0.10981   17.38541    3.86821   15.63747
      37      444        2     0.10981    0.13909    5.56491   15.45342
      38      444        2     0.10981    8.97177    5.56484   15.45361
      39      444        2     0.10981    8.68778    3.58819   13.10158
      40      444        2     0.10981   17.52023    3.58802   13.10257
      41      444        2     0.10981    0.36778    5.26772   12.97643
      42      444        2     0.10981    9.20001    5.26785   12.97505
      43      444        2     0.10981    2.30014    3.68296   12.89320
      44      444        2     0.10981   11.13223    3.68294   12.89300
      45      444        2     0.10981    1.84340    2.98632   14.44436
      46      444        2     0.10981   10.67560    2.98624   14.44416
      47      444        2     0.10981    2.74081    3.92052   16.49747
      48      444        2     0.10981   11.57319    3.92039   16.49727
      49      444        2     0.10981    4.27438    6.18289   17.10065
      50      444        2     0.10981   13.10669    6.18280   17.10065
      51      444        2     0.10981    3.94203    7.03643   12.34300
      52      444        2     0.10981   12.77423    7.03645   12.34300
      53      444        2     0.10981    2.90461    5.64926   11.97172
      54      444        2     0.10981   11.73672    5.64931   11.97152
      55      444        2     0.10981    2.17064    7.15493   12.55395
      56      444        2     0.10981   11.00287    7.15498   12.55395
      57      444        2     0.10981    3.97903   13.30281    6.95904
      58      444        2     0.10981   12.79978   13.30665    6.96220
      59      444        2     0.10981    5.19935   11.79210    8.58769
      60      444        2     0.10981   14.02904   11.79731    8.58651
      61      444        2     0.10981    4.34523   11.65108   10.91719
      62      444        2     0.10981   13.18121   11.65085   10.91759
      63      444        2     0.10981    8.64875    0.78960   13.00550
      64      444        2     0.10981   17.48590    0.78403   13.00273
      65      444        2     0.10981    6.50979    0.35528   11.72796
      66      444        2     0.10981   15.34733    0.35297   11.72440
      67      444        2     0.10981    6.65755   14.65492    9.55721
      68      444        2     0.10981   15.49687   14.66646    9.54594
      69      444        2     0.10981    8.73241   13.26128    2.13931
      70      444        2     0.10981   17.56417   13.26097    2.13832
      71      444        2     0.10981    7.23598   10.87539    2.29688
      72      444        2     0.10981   16.06831   10.87478    2.29688
      73      444        2     0.10981    7.13865   11.86162    7.03772
      74      444        2     0.10981   15.97050   11.86278    7.03693
      75      444        2     0.10981    8.14259   13.32833    6.95647
      76      444        2     0.10981   16.97353   13.33013    6.95568
      77      444        2     0.10981    6.39633   13.42703    6.64865
      78      444        2     0.10981   15.22690   13.42742    6.64746
      79      444        2     0.10981    6.33868    9.58261    4.16534
      80      444        2     0.10981   15.17053    9.58305    4.16574
      81      444        2     0.10981    6.65926   10.09404    5.82523
      82      444        2     0.10981   15.49158   10.09482    5.82523
      83      444        2     0.10981    4.69245   11.65072    5.73330
      84      444        2     0.10981   13.52468   11.65163    5.75327
      85      444        2     0.10981    4.27494    9.95387    5.56921
      86      444        2     0.10981   13.10710    9.95471    5.56960
      87      444        2     0.10981    4.55980   11.92949    3.21757
      88      444        2     0.10981   13.39202   11.92995    3.21776
      89      444        2     0.10981    4.04702   10.24998    3.09223
      90      444        2     0.10981   12.87933   10.25040    3.09262
      91      444        2     0.10981    2.11524   11.83512    3.00702
      92      444        2     0.10981   10.94742   11.83543    3.00702
      93      444        2     0.10981    2.57180   12.53340    4.55778
      94      444        2     0.10981   11.40383   12.53381    4.55778
      95      444        2     0.10981    1.67241   11.60242    6.61128
      96      444        2     0.10981   10.50514   11.60226    6.61109
      97      444        2     0.10981    0.13983    9.33974    7.21704
      98      444        2     0.10981    8.97275    9.33946    7.21724
      99      444        2     0.10981    0.47748    8.47434    2.46275
     100      444        2     0.10981    9.30985    8.47462    2.46275
     101      444        2     0.10981    1.50553    9.86685    2.08672
     102      444        2     0.10981   10.33798    9.86707    2.08672
     103      444        2     0.10981    2.24970    8.36758    2.67330
     104      444        2     0.10981   11.08208    8.36772    2.67330
     105      444        2     0.10981    8.39958    9.98173   12.81135
     106      444        2     0.10981   17.23181    9.98259   12.81096
     107      444        2     0.10981    0.78730   11.49230   11.17993
     108      444        2     0.10981    9.62035   11.49071   11.18191
     109      444        2     0.10981    8.76529   11.63199    8.85281
     110      444        2     0.10981   17.59658   11.63328    8.85241
     111      444        2     0.10981    4.23263    6.97098    6.76885
     112      444        2     0.10981   13.06429    6.97117    6.76925
     113      444        2     0.10981    2.09464    7.40125    8.04975
     114      444        2     0.10981   10.92644    7.40144    8.05034
     115      444        2     0.10981    2.25163    8.61657   10.22702
     116      444        2     0.10981   11.08371    8.61704   10.22900
     117      444        2     0.10981    4.32172   10.02362   17.63286
     118      444        2     0.10981   13.15401   10.02372   17.63385
     119      444        2     0.10981    2.82736   12.41111   17.47846
     120      444        2     0.10981   11.65957   12.41116   17.47846
     121      444        2     0.10981    2.72325   11.42611   12.73761
     122      444        2     0.10981   11.55579   11.42587   12.73741
     123      444        2     0.10981    3.72961    9.96081   12.81709
     124      444        2     0.10981   12.56178    9.96036   12.81709
     125      444        2     0.10981    1.98366    9.85928   13.12609
     126      444        2     0.10981   10.81581    9.85928   13.12609
     127      444        2     0.10981    1.92666   13.70346   15.61513
     128      444        2     0.10981   10.75907   13.70350   15.61474
     129      444        2     0.10981    2.25086   13.19837   13.95366
     130      444        2     0.10981   11.08309   13.19784   13.95386
     131      444        2     0.10981    0.28469   11.64115   14.01594
     132      444        2     0.10981    9.11684   11.64112   14.01594
     133      444        2     0.10981    8.69841   13.33715   14.20494
     134      444        2     0.10981   17.53069   13.33715   14.20494
     135      444        2     0.10981    0.14580   11.35291   16.55006
     136      444        2     0.10981    8.97840   11.35296   16.55006
     137      444        2     0.10981    8.46458   13.03189   16.68034
     138      444        2     0.10981   17.29673   13.03189   16.68034
     139      444        2     0.10981    6.53351   11.44561   16.75567
     140      444        2     0.10981   15.36550   11.44579   16.75547
     141      444        2     0.10981    6.99335   10.75371   15.20333
     142      444        2     0.10981   15.82535   10.75401   15.20293
     143      444        2     0.10981    6.08935   11.68592   13.15476
     144      444        2     0.10981   14.92136   11.68636   13.15298
     145      444        2     0.10981    4.55468   13.94847   12.55415
     146      444        2     0.10981   13.38626   13.94877   12.55415
     147      444        2     0.10981    4.89867   14.79893   17.31358
     148      444        2     0.10981   13.73086   14.79908   17.31377
     149      444        2     0.10981    5.94878   13.41984   17.67873
     150      444        2     0.10981   14.78096   13.41993   17.67873
     151      444        2     0.10981    6.66818   14.93006   17.08938
     152      444        2     0.10981   15.50038   14.93020   17.08938
     153      444        2     0.10981    4.85148    5.53413    2.92398
     154      444        2     0.10981   13.68342    5.53380    2.92398
     155      444        2     0.10981    3.62554    4.03462    1.29078
     156      444        2     0.10981   12.45756    4.03431    1.28900
     157      444        2     0.10981    4.47004    3.90282   18.72614
     158      444        2     0.10981   13.30219    3.90261   18.72219
     159      444        2     0.10981    0.18746    8.55307   16.65642
     160      444        2     0.10981    9.02001    8.55318   16.65642
     161      444        2     0.10981    2.32248    8.11543   17.93930
     162      444        2     0.10981   11.15505    8.11555   17.93910
     163      444        2     0.10981    2.15856    6.90462    0.34518
     164      444        2     0.10981   10.99119    6.90472    0.34499
     165      444        2     0.10981    0.09435    5.49963    7.74865
     166      444        2     0.10981    8.92430    5.50023    7.74925
     167      444        2     0.10981    1.59116    3.11370    7.59227
     168      444        2     0.10981   10.41863    3.11283    7.59563
     169      444        2     0.10981    1.68978    4.09763    2.85123
     170      444        2     0.10981   10.52340    4.09477    2.85400
     171      444        2     0.10981    0.68418    5.56356    2.93090
     172      444        2     0.10981    9.51834    5.56107    2.93189
     173      444        2     0.10981    2.43036    5.66384    3.24010
     174      444        2     0.10981   11.26438    5.66101    3.24248
     175      444        2     0.10981    2.48762    1.81962    5.72460
     176      444        2     0.10981   11.31936    1.81859    5.73211
     177      444        2     0.10981    2.16526    2.32944    4.06471
     178      444        2     0.10981   10.99661    2.32448    4.07143
     179      444        2     0.10981    4.13234    3.88531    4.13193
     180      444        2     0.10981   12.96314    3.88186    4.13608
     181      444        2     0.10981    4.54972    2.18857    4.31836
     182      444        2     0.10981   13.38058    2.18521    4.32192
     183      444        2     0.10981    4.26779    4.16777    6.66743
     184      444        2     0.10981   13.10174    4.16487    6.67099
     185      444        2     0.10981    4.78014    2.48814    6.79455
     186      444        2     0.10981   13.61524    2.48552    6.79752
     187      444        2     0.10981    6.71225    4.07354    6.87561
     188      444        2     0.10981   15.54616    4.07177    6.87660
     189      444        2     0.10981    6.25471    4.76825    5.32366
     190      444        2     0.10981   15.08692    4.76652    5.32406
     191      444        2     0.10981    7.15626    3.83534    3.27193
     192      444        2     0.10981   15.98426    3.83296    3.27292
     193      444        2     0.10981    8.68984    1.57215    2.67152
     194      444        2     0.10981   17.51982    1.57150    2.66935
     195      444        2     0.10981    8.35061    0.72423    7.43174
     196      444        2     0.10981   17.19235    0.72154    7.42818
     197      444        2     0.10981    7.30013    2.10321    7.79531
     198      444        2     0.10981   16.14864    2.10443    7.79867
     199      444        2     0.10981    6.58075    0.59208    7.20972
     200      444        2     0.10981   15.42178    0.59540    7.21526
     201      444        3     0.68414    2.54898    0.64573   17.33295
     202      444        3     0.68414   11.38132    0.64573   17.33236
     203      444        3    -0.19210    1.83416    1.52335   18.33549
     204      444        3    -0.19210   10.66624    1.52326   18.33608
     205      444        3    -0.09225    0.74269    2.28171   17.89679
     206      444        3    -0.09225    9.57492    2.28171   17.89699
     207      444        3    -0.09225    0.06592    3.11159   18.78446
     208      444        3    -0.09225    8.89810    3.11167   18.78466
     209      444        3     0.02117    0.52847    3.18734    0.32798
     210      444        3     0.02117    9.36035    3.18733    0.32838
     211      444        3     0.23590    2.20046    1.62912   19.69151
     212      444        3     0.23590   11.03218    1.62889   19.69210
     213      444        3     0.23590    3.40052    0.94171    0.46598
     214      444        3     0.23590   12.23203    0.94134    0.46677
     215      444        3    -0.19210    3.37296    0.20548    1.67056
     216      444        3    -0.19210   12.20401    0.20500    1.67136
     217      444        3    -0.09225    4.59098   15.27480    2.17312
     218      444        3    -0.09225   13.42189   15.27412    2.17411
     219      444        3    -0.09225    5.76952   15.51224    1.46990
     220      444        3    -0.09225   14.60061   15.51137    1.47109
     221      444        3     0.02117    5.68858    0.67695    0.26413
     222      444        3     0.02117   14.52007    0.67625    0.26531
     223      444        3     0.68414    2.08532   15.38358    2.39118
     224      444        3     0.68414   10.91589   15.38322    2.39138
     225      444        3     0.02117    5.02192    2.73496   12.85584
     226      444        3     0.02117   13.85385    2.73437   12.85564
     227      444        3     0.02117    5.76735    3.88225   12.91376
     228      444        3     0.02117   14.59941    3.88161   12.91356
     229      444        3     0.33715    5.69761    2.95054   14.94197
     230      444        3     0.33715   14.52971    2.95018   14.94197
     231      444        4    -0.44227    5.95237    2.71599   16.38458
     232      444        4    -0.44227   14.78459    2.71582   16.38439
     233      444        4    -0.02528    7.01644    5.10244   14.75356
     234      444        4    -0.02528   15.84849    5.10211   14.75316
     235      444        4    -0.15115    8.48339    4.72012   14.94355
     236      444        4    -0.15115   17.31550    4.72004   14.94335
     237      444        4    -0.15115    0.38316    4.39071   13.64308
     238      444        4    -0.15115    9.21541    4.39081   13.64308
     239      444        4    -0.02528    1.82118    3.91185   13.85284
     240      444        4    -0.02528   10.65340    3.91184   13.85422
     241      444        3     0.02117    3.02730    4.78024   15.90358
     242      444        3     0.02117   11.85966    4.78013   15.90338
     243      444        3     0.02117    3.78911    5.88136   16.17937
     244      444        3     0.02117   12.62143    5.88129   16.17779
     245      444        3     0.33715    3.20845    6.02417   14.05667
     246      444        3     0.33715   12.04074    6.02411   14.05647
     247      444        4    -0.44227    3.04387    6.49276   12.65972
     248      444        4    -0.44227   11.87609    6.49278   12.65972
     249      444        3     0.68414    1.88032   14.87347    7.43194
     250      444        3     0.68414   10.69672   14.87339    7.44736
     251      444        3    -0.19210    2.58829   13.99747    8.44080
     252      444        3    -0.19210   11.41154   13.99526    8.44930
     253      444        3    -0.09225    3.67935   13.23647    8.00547
     254      444        3    -0.09225   12.50316   13.23774    8.00942
     255      444        3    -0.09225    4.35033   12.40319    8.89254
     256      444        3    -0.09225   13.17896   12.40560    8.89571
     257      444        3     0.02117    3.88144   12.33678   10.20567
     258      444        3     0.02117   12.71345   12.33602   10.20824
     259      444        3     0.23590    2.21776   13.89226    9.79564
     260      444        3     0.23590   11.04423   13.88672    9.80394
     261      444        3     0.23590    1.01794   14.59206   10.33991
     262      444        3     0.23590    9.84350   14.58429   10.34979
     263      444        3    -0.19210    1.04519   15.31992   11.55003
     264      444        3    -0.19210    9.87141   15.31693   11.55655
     265      444        3    -0.09225    8.65364    0.24749   12.05970
     266      444        3    -0.09225   17.49139    0.24650   12.05555
     267      444        3    -0.09225    7.47490    0.01228   11.35628
     268      444        3    -0.09225   16.31288    0.01376   11.35035
     269      444        3     0.02117    7.55561   14.85141   10.14814
     270      444        3     0.02117   16.39462   14.86041   10.13825
     271      444        3     0.68414    2.33293    0.13866   12.27282
     272      444        3     0.68414   11.15978    0.13782   12.27658
     273      444        3     0.02117    8.22374   12.78440    2.97044
     274      444        3     0.02117   17.05545   12.78447    2.96965
     275      444        3     0.02117    7.47901   11.63670    3.02936
     276      444        3     0.02117   16.31105   11.63656    3.02896
     277      444        3     0.33715    7.54807   12.57013    5.05697
     278      444        3     0.33715   16.37969   12.57111    5.05598
     279      444        4    -0.44227    7.29339   12.80604    6.49919
     280      444        4    -0.44227   16.12467   12.80730    6.49820
     281      444        4    -0.02528    6.23042   10.41733    4.87014
     282      444        4    -0.02528   15.06253   10.41794    4.86935
     283      444        4    -0.15115    4.76312   10.79874    5.05914
     284      444        4    -0.15115   13.59529   10.79951    5.05954
     285      444        4    -0.15115    4.03172   11.12740    3.75828
     286      444        4    -0.15115   12.86392   11.12794    3.75867
     287      444        4    -0.02528    2.59386   11.60722    3.96863
     288      444        4    -0.02528   11.42603   11.60762    3.96863
     289      444        3     0.02117    1.38655   10.74180    6.01838
     290      444        3     0.02117   10.21903   10.74185    6.01858
     291      444        3     0.02117    0.62455    9.64118    6.29477
     292      444        3     0.02117    9.45733    9.64104    6.29556
     293      444        3     0.33715    1.20603    9.49564    4.17305
     294      444        3     0.33715   10.03856    9.49577    4.17147
     295      444        4    -0.44227    1.37232    9.02446    2.77729
     296      444        4    -0.44227   10.20475    9.02465    2.77571
     297      444        3     0.68414    6.29999    8.41182   12.33905
     298      444        3     0.68414   15.13244    8.41213   12.33885
     299      444        3    -0.19210    7.00793    9.28738   11.32999
     300      444        3    -0.19210   15.84010    9.28805   11.32979
     301      444        3    -0.09225    8.09942   10.04797   11.76493
     302      444        3    -0.09225   16.93146   10.04890   11.76473
     303      444        3    -0.09225    8.77091   10.88008   10.87567
     304      444        3    -0.09225   17.60249   10.88148   10.87548
     305      444        3     0.02117    8.30145   10.94658    9.56433
     306      444        3     0.02117   17.13284   10.94797    9.56413
     307      444        3     0.23590    6.63678    9.39256    9.97555
     308      444        3     0.23590   15.46873    9.39328    9.97535
     309      444        3     0.23590    5.43667    8.69244    9.43207
     310      444        3     0.23590   14.26861    8.69298    9.43207
     311      444        3    -0.19210    5.46299    7.96526    8.22155
     312      444        3    -0.19210   14.29481    7.96553    8.22175
     313      444        3    -0.09225    4.23849    7.50810    7.71722
     314      444        3    -0.09225   13.07023    7.50842    7.71761
     315      444        3    -0.09225    3.06039    7.74068    8.42301
     316      444        3    -0.09225   11.89222    7.74094    8.42340
     317      444        3     0.02117    3.14893    8.42358    9.63530
     318      444        3     0.02117   11.98091    8.42397    9.63570
     319      444        3     0.68414    6.74409    7.61684    7.49797
     320      444        3     0.68414   15.57572    7.61697    7.49777
     321      444        3     0.02117    3.81204   10.50128   16.80371
     322      444        3     0.02117   12.64436   10.50133   16.80371
     323      444        3     0.02117    3.06842   11.64961   16.74558
     324      444        3     0.02117   11.90071   11.64963   16.74558
     325      444        3     0.33715    3.13540   10.71672   14.71679
     326      444        3     0.33715   11.96769   10.71661   14.71758
     327      444        4    -0.44227    2.87986   10.48153   13.27536
     328      444        4    -0.44227   11.71217   10.48132   13.27536
     329      444        4    -0.02528    1.82001   12.87125   14.90717
     330      444        4    -0.02528   10.65231   12.87109   14.90697
     331      444        4    -0.15115    0.35320   12.49053   14.71303
     332      444        4    -0.15115    9.18547   12.49047   14.71303
     333      444        4    -0.15115    8.45127   12.15687   16.00974
     334      444        4    -0.15115   17.28338   12.15692   16.01093
     335      444        4    -0.02528    7.01404   11.67753   15.79603
     336      444        4    -0.02528   15.84611   11.67778   15.79583
     337      444        3     0.02117    5.80422   12.54582   13.74904
     338      444        3     0.02117   14.63634   12.54630   13.74885
     339      444        3     0.02117    5.04139   13.64646   13.47444
     340      444        3     0.02117   13.87341   13.64692   13.47444
     341      444        3     0.33715    5.62820   13.79103   15.59457
     342      444        3     0.33715   14.46028   13.79134   15.59556
     343      444        4    -0.44227    5.79887   14.26175   16.99113
     344      444        4    -0.44227   14.63104   14.26192   16.99093
     345      444        3     0.68414    6.94554    7.11121    2.45425
     346      444        3     0.68414   15.77728    7.11120    2.45425
     347      444        3    -0.19210    6.23737    6.23829    1.44301
     348      444        3    -0.19210   15.06918    6.23827    1.38390
     349      444        3    -0.09225    5.14773    5.47468    1.87716
     350      444        3    -0.09225   13.97970    5.47439    1.87716
     351      444        3    -0.09225    4.47315    4.64797    0.98514
     352      444        3    -0.09225   13.30517    4.64771    0.98455
     353      444        3     0.02117    4.93784    4.58210   19.44102
     354      444        3     0.02117   13.76992    4.58190   19.44083