Created on Tue Feb 06 14:51:30 2018 

        2592 atoms
        3348 bonds
        7740 angles
        6588 dihedrals

           6 atom types
           6 bond types
          12 angle types
           4 dihedral types
           0.000000  31.689000 xlo xhi
           0.000000  33.437668 ylo yhi
           0.000000  32.992282 zlo zhi
          -6.662694  -3.226991  -5.675148 xy xz yz

Masses

    1    69.723000000 # Ga3+3
    2    30.973762000 # P_3+q
    3     1.007940000 # H_
    4    12.010700000 # C_3
    5    15.999400000 # O_3_z
    6    18.998403200 # F_

Bond Coeffs

    1      278.852286        1.708546  # Ga3+3 O_3_z
    2      182.647982        1.790896  # Ga3+3 F_
    3      305.050255        1.812946  # P_3+q C_3
    4      572.196304        1.563412  # P_3+q O_3_z
    5      331.069389        1.109401  # H_ C_3
    6      349.795899        1.514000  # C_3 C_3

Angle Coeffs

    1                      fourier       33.227096        0.343737        0.374972        0.281246 # F_ Ga3+3 F_
    2                      fourier       73.886891        0.343737        0.374972        0.281246 # O_3_z Ga3+3 O_3_z
    3                      fourier       49.455900        0.343737        0.374972        0.281246 # O_3_z Ga3+3 F_
    4                      fourier      115.168344        0.343737        0.374972        0.281246 # O_3_z P_3+q O_3_z
    5                      fourier       64.908356        0.343737        0.374972        0.281246 # C_3 P_3+q O_3_z
    6                      fourier       86.781059        0.343737        0.374972        0.281246 # P_3+q C_3 C_3
    7                      fourier       61.342703        0.343737        0.374972        0.281246 # H_ C_3 H_
    8                      fourier       69.847816        0.343737        0.374972        0.281246 # C_3 C_3 H_
    9                      fourier       59.282363        0.343737        0.374972        0.281246 # P_3+q C_3 H_
   10                      fourier       45.893058        1.898490        2.651251        0.799497 # P_3+q O_3_z Ga3+3
   11                      fourier       23.468010        1.898490        2.651251        0.799497 # Ga3+3 O_3_z Ga3+3
   12              cosine/periodic       14.942546               1               1 # Ga3+3 F_ Ga3+3

Dihedral Coeffs

    1        0.070473               1               3 # O_3_z P_3+q C_3 C_3
    2        0.136931               1               2 # O_3_z P_3+q O_3_z Ga3+3
    3        0.091287               1               2 # C_3 P_3+q O_3_z Ga3+3
    4        0.066219               1               3 # H_ C_3 C_3 H_

Pair Coeffs

    1        0.415000        3.904809 # Ga3+3 Ga3+3
    2        0.305000        3.694557 # P_3+q P_3+q
    3        0.044000        2.571134 # H_ H_
    4        0.105000        3.430851 # C_3 C_3
    5        0.060000        3.118146 # O_3_z O_3_z
    6        0.050000        2.996983 # F_ F_

Atoms

       1      444        1     1.70288    8.50013    8.20384    0.28646
       2      444        1     1.65338    7.83138    7.01804    8.36772
       3      444        1     1.69970   -0.14801    2.61723    0.00000
       4      444        1     1.76575    9.22443    1.21498    8.23804
       5      444        1     1.69256    2.42639    5.41345   16.17856
       6      444        1     1.64295    3.06249    6.62480    8.11359
       7      444        1     1.69687    4.33128    2.63317    0.22885
       8      444        1     1.76560    3.92417    1.25481    8.20630
       9      444        1     1.69898    6.24804   -2.50069   16.14502
      10      444        1     1.67010    5.07180    9.26360    8.45909
      11      444        1     1.71319    6.90367    4.96871    0.30346
      12      444        1     1.67671    5.82428    4.36455    7.98580
      13      444        1     1.70937    0.49743   10.57543    0.39028
      14      444        1     1.71630   -0.00822    9.18871    8.43756
      15      444        1     1.71430   -0.11196    3.03574   16.08425
      16      444        1     1.71472    0.38130    4.41717    8.02509
      17      444        2     1.49430    5.29814    6.46653   10.15242
      18      444        2     1.54429    5.96329    7.57638    1.94201
      19      444        2     1.56326    6.53427    0.60982   10.11679
      20      444        2     1.54832    7.06631    2.27952    1.88445
      21      444        2     1.53770   -0.24332    6.55827   10.17937
      22      444        2     1.55124    0.69407    7.79363    1.87050
      23      444        2     1.58397    1.29880    0.59228   10.06207
      24      444        2     1.54156    1.83369    2.09178    1.96746
      25      444        2     1.53970    4.96081    6.04181   14.51845
      26      444        2     1.49286    5.60156    7.16775    6.31258
      27      444        2     1.52621    6.09629    0.19037   14.56322
      28      444        2     1.56364    6.60666    1.86587    6.33343
      29      444        2     1.54352   -0.32877    5.81181   14.59838
      30      444        2     1.53218    0.60052    7.03568    6.28082
      31      444        2     1.55843    0.76980    0.38657   14.48302
      32      444        2     1.58773    1.29162    1.87489    6.38569
      33      444        3     0.18626    6.70910    6.74434   12.03364
      34      444        3     0.17600    7.10622    7.92249    3.96945
      35      444        3     0.16870    7.78422    0.81870   12.13143
      36      444        3     0.16630    8.35211    2.36205    3.87598
      37      444        3     0.17862    1.14594    6.78201   12.08606
      38      444        3     0.17200    2.03476    7.97382    3.80434
      39      444        3     0.16071    2.59201    0.75916   12.04771
      40      444        3     0.17482    3.00308    2.35229    3.99474
      41      444        3     0.18840    5.26655    7.77603   12.11869
      42      444        3     0.18025    5.63871    8.90733    3.88624
      43      444        3     0.16501    6.44450    1.97093   12.06122
      44      444        3     0.16716    7.03462    3.53699    3.87336
      45      444        3     0.17449   -0.31796    7.76654   12.22171
      46      444        3     0.17825    0.55293    8.92123    3.94532
      47      444        3     0.16725    1.30271    1.96930   11.99164
      48      444        3     0.16826    1.69045    3.52906    3.84090
      49      444        3     0.17731    3.83084    5.66788   12.49119
      50      444        3     0.18522    4.21710    6.86901    4.41570
      51      444        3     0.16472    4.80036    0.10069   12.58027
      52      444        3     0.16367    5.36273    1.65839    4.31206
      53      444        3     0.17052   -1.68143    5.63735   12.67057
      54      444        3     0.17666   -0.78803    6.81138    4.37403
      55      444        3     0.16988   -0.41310    0.13884   12.46262
      56      444        3     0.15999   -0.00452    1.73721    4.39807
      57      444        3     0.18254    5.31215    4.70439   12.58134
      58      444        3     0.18499    5.66003    5.83616    4.35948
      59      444        3     0.16311    6.12387   -1.06725   12.57399
      60      444        3     0.16585    6.69749    0.50136    4.39197
      61      444        3     0.17972   -0.20641    4.67942   12.52488
      62      444        3     0.16833    0.68063    5.83397    4.23659
      63      444        3     0.16248    0.89826   -1.04061   12.60287
      64      444        3     0.17164    1.27684    0.51890    4.44411
      65      444        4    -0.44456    5.61981    6.76038   11.88834
      66      444        4    -0.45238    6.03616    7.89710    3.71694
      67      444        4    -0.44098    6.71483    0.91740   11.89969
      68      444        4    -0.44142    7.27964    2.48418    3.66948
      69      444        4    -0.44060    0.05431    6.76739   11.95246
      70      444        4    -0.45029    0.94547    7.93478    3.65809
      71      444        4    -0.44979    1.52466    0.90436   11.83242
      72      444        4    -0.44522    1.94303    2.46556    3.72470
      73      444        4    -0.45252    4.89995    5.70937   12.74583
      74      444        4    -0.44368    5.30448    6.85431    4.57502
      75      444        4    -0.43116    5.87468   -0.01602   12.78062
      76      444        4    -0.43732    6.43059    1.55649    4.54922
      77      444        4    -0.44495   -0.59115    5.66935   12.81089
      78      444        4    -0.43587    0.30330    6.83031    4.50897
      79      444        4    -0.43973    0.64874    0.02305   12.72469
      80      444        4    -0.45316    1.06185    1.58402    4.61212
      81      444        5    -0.93263    6.06770    7.60110    9.27373
      82      444        5    -0.89004    6.93524    8.58429    1.26758
      83      444        5    -0.89500    7.57585    1.46296    9.37360
      84      444        5    -0.91759    7.74835    3.51769    1.20321
      85      444        5    -0.91338    0.60585    7.61600    9.39287
      86      444        5    -0.89968    1.32179    9.08471    1.25095
      87      444        5    -0.89425    2.29397    1.50933    9.32309
      88      444        5    -0.88252    2.79099    3.06921    1.22190
      89      444        5    -0.80121    5.86366    5.08814    9.78064
      90      444        5    -0.86665    6.41680    6.11061    1.77434
      91      444        5    -0.85716    6.84835   -0.93785    9.97857
      92      444        5    -0.83242    7.77646    0.97613    1.45907
      93      444        5    -0.82213    0.19258    5.13145    9.80656
      94      444        5    -0.83390    1.44968    6.53320    1.39915
      95      444        5    -0.88226    1.63692   -0.92962    9.88934
      96      444        5    -0.85362    2.27452    0.61466    1.81698
      97      444        5    -0.79392    3.78892    6.58007    9.90689
      98      444        5    -0.81738    4.51236    7.86079    1.48808
      99      444        5    -0.86376    5.06288    0.91000    9.78439
     100      444        5    -0.87079    5.54463    2.22037    1.61893
     101      444        5    -0.85168   -1.77478    6.77322    9.97345
     102      444        5    -0.87477   -0.82998    7.67999    1.62535
     103      444        5    -0.86707   -0.19695    0.87092    9.79094
     104      444        5    -0.81749    0.37180    2.35833    1.52639
     105      444        5    -0.88109    3.98787    5.03253   15.18885
     106      444        5    -0.93375    4.83940    6.03358    7.19661
     107      444        5    -0.90470    5.41386   -1.04498   15.24667
     108      444        5    -0.89306    5.57177    1.00402    7.07805
     109      444        5    -0.89641   -0.95296    4.52435   15.22932
     110      444        5    -0.90875   -0.24735    5.97713    7.06335
     111      444        5    -0.90629   -0.18689   -0.59349   15.22526
     112      444        5    -0.89137    0.28419    0.95963    7.11163
     113      444        5    -0.85561    4.49189    7.50518   14.67102
     114      444        5    -0.80056    5.00528    8.53821    6.66805
     115      444        5    -0.82739    5.39369    1.49641   14.98902
     116      444        5    -0.86214    6.27958    3.41144    6.47163
     117      444        5    -0.82509   -1.07480    7.07607   15.07393
     118      444        5    -0.82442    0.17725    8.46514    6.65628
     119      444        5    -0.86598    0.34120    1.86496   14.64852
     120      444        5    -0.88586    0.97217    3.39762    6.58099
     121      444        5    -0.81775    6.41282    5.78391   14.98384
     122      444        5    -0.80022    7.11047    7.09743    6.57358
     123      444        5    -0.85083    7.61947    0.24557   14.82383
     124      444        5    -0.86486    8.07894    1.57330    6.66594
     125      444        5    -0.86832    1.19806    5.91723   14.83089
     126      444        5    -0.84871    2.13139    6.81151    6.48575
     127      444        5    -0.82656    2.23256    0.10773   14.91601
     128      444        5    -0.86778    2.78631    1.58487    6.64799
     129      444        6    -0.56499    6.60584    3.46779   16.32569
     130      444        6    -0.53966    7.65949    5.13175    8.02541
     131      444        6    -0.55043    8.11603   -1.99347   16.15444
     132      444        6    -0.56354    8.72403   -0.76009    7.96491
     133      444        6    -0.55580    1.73877    3.59927   16.03695
     134      444        6    -0.54329    2.31177    4.91885    8.36292
     135      444        6    -0.56422    2.48899   -2.14701   16.38313
     136      444        6    -0.56828    3.55296   -0.70224    7.96409
     137      444        6    -0.53719    3.22855    8.52293    8.41791
     138      444        6    -0.56421    4.29518   10.17122    0.11466
     139      444        6    -0.56169    4.40181    3.22726    8.47407
     140      444        6    -0.55563    5.05413    4.45597    0.28537
     141      444        6    -0.54604   -1.92810    8.69437    8.12993
     142      444        6    -0.56078   -1.35093   10.00685    0.45790
     143      444        6    -0.56707   -0.98826    3.17209    8.47433
     144      444        6    -0.57614    0.12092    4.61085    0.05982
     145      444        1     1.70288    6.88664    5.36627   16.78260
     146      444        1     1.65338    6.21788    4.18047   24.86386
     147      444        1     1.69970   -1.76150   -0.22034   16.49614
     148      444        1     1.76575    7.61094   -1.62259   24.73418
     149      444        1     1.69256    0.81290    2.57588   32.67470
     150      444        1     1.64295    1.44899    3.78723   24.60973
     151      444        1     1.69687    2.71779   -0.20440   16.72499
     152      444        1     1.76560    2.31068   -1.58277   24.70244
     153      444        1     1.69898    4.63454   -5.33827   32.64116
     154      444        1     1.67010    3.45831    6.42603   24.95523
     155      444        1     1.71319    5.29018    2.13114   16.79960
     156      444        1     1.67671    4.21078    1.52698   24.48194
     157      444        1     1.70937   -1.11606    7.73786   16.88642
     158      444        1     1.71630   -1.62171    6.35113   24.93370
     159      444        1     1.71430   -1.72546    0.19816   32.58039
     160      444        1     1.71472   -1.23220    1.57960   24.52123
     161      444        2     1.49430    3.68464    3.62896   26.64856
     162      444        2     1.54429    4.34980    4.73881   18.43815
     163      444        2     1.56326    4.92077   -2.22775   26.61293
     164      444        2     1.54832    5.45281   -0.55806   18.38059
     165      444        2     1.53770   -1.85681    3.72070   26.67551
     166      444        2     1.55124   -0.91942    4.95605   18.36664
     167      444        2     1.58397   -0.31469   -2.24529   26.55821
     168      444        2     1.54156    0.22020   -0.74579   18.46360
     169      444        2     1.53970    3.34732    3.20423   31.01459
     170      444        2     1.49286    3.98806    4.33018   22.80872
     171      444        2     1.52621    4.48280   -2.64720   31.05936
     172      444        2     1.56364    4.99317   -0.97170   22.82957
     173      444        2     1.54352   -1.94226    2.97423   31.09452
     174      444        2     1.53218   -1.01298    4.19810   22.77696
     175      444        2     1.55843   -0.84369   -2.45100   30.97916
     176      444        2     1.58773   -0.32188   -0.96268   22.88183
     177      444        3     0.18626    5.09560    3.90677   28.52978
     178      444        3     0.17600    5.49272    5.08492   20.46559
     179      444        3     0.16870    6.17072   -2.01888   28.62757
     180      444        3     0.16630    6.73861   -0.47553   20.37212
     181      444        3     0.17862   -0.46755    3.94443   28.58220
     182      444        3     0.17200    0.42126    5.13625   20.30048
     183      444        3     0.16071    0.97851   -2.07842   28.54385
     184      444        3     0.17482    1.38958   -0.48529   20.49088
     185      444        3     0.18840    3.65305    4.93846   28.61483
     186      444        3     0.18025    4.02521    6.06976   20.38238
     187      444        3     0.16501    4.83100   -0.86664   28.55736
     188      444        3     0.16716    5.42112    0.69941   20.36950
     189      444        3     0.17449   -1.93146    4.92896   28.71785
     190      444        3     0.17825   -1.06056    6.08365   20.44146
     191      444        3     0.16725   -0.31079   -0.86827   28.48778
     192      444        3     0.16826    0.07696    0.69149   20.33704
     193      444        3     0.17731    2.21735    2.83031   28.98733
     194      444        3     0.18522    2.60360    4.03143   20.91184
     195      444        3     0.16472    3.18686   -2.73688   29.07641
     196      444        3     0.16367    3.74924   -1.17919   20.80820
     197      444        3     0.17052   -3.29492    2.79977   29.16671
     198      444        3     0.17666   -2.40153    3.97381   20.87018
     199      444        3     0.16988   -2.02660   -2.69874   28.95876
     200      444        3     0.15999   -1.61802   -1.10037   20.89421
     201      444        3     0.18254    3.69866    1.86682   29.07748
     202      444        3     0.18499    4.04653    2.99858   20.85563
     203      444        3     0.16311    4.51038   -3.90483   29.07013
     204      444        3     0.16585    5.08399   -2.33621   20.88811
     205      444        3     0.17972   -1.81991    1.84185   29.02102
     206      444        3     0.16833   -0.93287    2.99639   20.73273
     207      444        3     0.16248   -0.71523   -3.87819   29.09901
     208      444        3     0.17164   -0.33666   -2.31868   20.94025
     209      444        4    -0.44456    4.00632    3.92280   28.38448
     210      444        4    -0.45238    4.42267    5.05953   20.21308
     211      444        4    -0.44098    5.10133   -1.92018   28.39583
     212      444        4    -0.44142    5.66614   -0.35339   20.16562
     213      444        4    -0.44060   -1.55918    3.92982   28.44860
     214      444        4    -0.45029   -0.66802    5.09720   20.15423
     215      444        4    -0.44979   -0.08884   -1.93321   28.32856
     216      444        4    -0.44522    0.32953   -0.37202   20.22084
     217      444        4    -0.45252    3.28645    2.87179   29.24197
     218      444        4    -0.44368    3.69099    4.01673   21.07116
     219      444        4    -0.43116    4.26118   -2.85359   29.27676
     220      444        4    -0.43732    4.81710   -1.28109   21.04536
     221      444        4    -0.44495   -2.20465    2.83178   29.30703
     222      444        4    -0.43587   -1.31020    3.99274   21.00511
     223      444        4    -0.43973   -0.96475   -2.81453   29.22084
     224      444        4    -0.45316   -0.55165   -1.25355   21.10826
     225      444        5    -0.93263    4.45420    4.76353   25.76988
     226      444        5    -0.89004    5.32175    5.74672   17.76372
     227      444        5    -0.89500    5.96236   -1.37462   25.86974
     228      444        5    -0.91759    6.13485    0.68011   17.69935
     229      444        5    -0.91338   -1.00765    4.77842   25.88901
     230      444        5    -0.89968   -0.29170    6.24714   17.74709
     231      444        5    -0.89425    0.68048   -1.32824   25.81923
     232      444        5    -0.88252    1.17749    0.23164   17.71804
     233      444        5    -0.80121    4.25017    2.25056   26.27679
     234      444        5    -0.86665    4.80331    3.27303   18.27048
     235      444        5    -0.85716    5.23485   -3.77542   26.47471
     236      444        5    -0.83242    6.16296   -1.86145   17.95521
     237      444        5    -0.82213   -1.42092    2.29388   26.30270
     238      444        5    -0.83390   -0.16382    3.69562   17.89529
     239      444        5    -0.88226    0.02343   -3.76720   26.38548
     240      444        5    -0.85362    0.66102   -2.22292   18.31312
     241      444        5    -0.79392    2.17543    3.74249   26.40303
     242      444        5    -0.81738    2.89887    5.02321   17.98422
     243      444        5    -0.86376    3.44939   -1.92757   26.28053
     244      444        5    -0.87079    3.93113   -0.61720   18.11507
     245      444        5    -0.85168   -3.38827    3.93565   26.46959
     246      444        5    -0.87477   -2.44347    4.84241   18.12149
     247      444        5    -0.86707   -1.81044   -1.96665   26.28708
     248      444        5    -0.81749   -1.24169   -0.47925   18.02253
     249      444        5    -0.88109    2.37438    2.19496   31.68500
     250      444        5    -0.93375    3.22590    3.19601   23.69275
     251      444        5    -0.90470    3.80036   -3.88255   31.74281
     252      444        5    -0.89306    3.95827   -1.83356   23.57419
     253      444        5    -0.89641   -2.56646    1.68678   31.72546
     254      444        5    -0.90875   -1.86085    3.13956   23.55949
     255      444        5    -0.90629   -1.80038   -3.43106   31.72140
     256      444        5    -0.89137   -1.32931   -1.87794   23.60778
     257      444        5    -0.85561    2.87839    4.66760   31.16717
     258      444        5    -0.80056    3.39178    5.70063   23.16419
     259      444        5    -0.82739    3.78020   -1.34116   31.48516
     260      444        5    -0.86214    4.66608    0.57386   22.96777
     261      444        5    -0.82509   -2.68830    4.23850   31.57007
     262      444        5    -0.82442   -1.43624    5.62757   23.15242
     263      444        5    -0.86598   -1.27229   -0.97262   31.14466
     264      444        5    -0.88586   -0.64133    0.56005   23.07713
     265      444        5    -0.81775    4.79932    2.94633   31.47998
     266      444        5    -0.80022    5.49697    4.25986   23.06972
     267      444        5    -0.85083    6.00597   -2.59201   31.31997
     268      444        5    -0.86486    6.46545   -1.26427   23.16208
     269      444        5    -0.86832   -0.41543    3.07966   31.32703
     270      444        5    -0.84871    0.51790    3.97394   22.98190
     271      444        5    -0.82656    0.61907   -2.72984   31.41215
     272      444        5    -0.86778    1.17282   -1.25270   23.14414
     273      444        6    -0.56499    4.99234    0.63021   32.82183
     274      444        6    -0.53966    6.04599    2.29417   24.52155
     275      444        6    -0.55043    6.50253   -4.83104   32.65058
     276      444        6    -0.56354    7.11053   -3.59766   24.46106
     277      444        6    -0.55580    0.12527    0.76170   32.53310
     278      444        6    -0.54329    0.69828    2.08128   24.85906
     279      444        6    -0.56422    0.87549   -4.98458   32.87927
     280      444        6    -0.56828    1.93946   -3.53982   24.46023
     281      444        6    -0.53719    1.61505    5.68536   24.91406
     282      444        6    -0.56421    2.68169    7.33365   16.61081
     283      444        6    -0.56169    2.78831    0.38968   24.97021
     284      444        6    -0.55563    3.44063    1.61840   16.78151
     285      444        6    -0.54604   -3.54159    5.85680   24.62607
     286      444        6    -0.56078   -2.96443    7.16927   16.95404
     287      444        6    -0.56707   -2.60176    0.33452   24.97047
     288      444        6    -0.57614   -1.49258    1.77328   16.55596
     289      444        1     1.70288    6.27924   19.34973    0.28646
     290      444        1     1.65338    5.61048   18.16393    8.36772
     291      444        1     1.69970   -2.36890   13.76312    0.00000
     292      444        1     1.76575    7.00354   12.36087    8.23804
     293      444        1     1.69256    0.20549   16.55934   16.17856
     294      444        1     1.64295    0.84159   17.77069    8.11359
     295      444        1     1.69687    2.11039   13.77906    0.22885
     296      444        1     1.76560    1.70327   12.40070    8.20630
     297      444        1     1.69898    4.02714    8.64520   16.14502
     298      444        1     1.67010    2.85091   20.40949    8.45909
     299      444        1     1.71319    4.68277   16.11460    0.30346
     300      444        1     1.67671    3.60338   15.51044    7.98580
     301      444        1     1.70937   -1.72346   21.72132    0.39028
     302      444        1     1.71630   -2.22911   20.33460    8.43756
     303      444        1     1.71430   -2.33286   14.18163   16.08425
     304      444        1     1.71472   -1.83960   15.56306    8.02509
     305      444        2     1.49430    3.07724   17.61242   10.15242
     306      444        2     1.54429    3.74240   18.72227    1.94201
     307      444        2     1.56326    4.31337   11.75571   10.11679
     308      444        2     1.54832    4.84541   13.42540    1.88445
     309      444        2     1.53770   -2.46421   17.70416   10.17937
     310      444        2     1.55124   -1.52683   18.93951    1.87050
     311      444        2     1.58397   -0.92210   11.73817   10.06207
     312      444        2     1.54156   -0.38720   13.23767    1.96746
     313      444        2     1.53970    2.73991   17.18770   14.51845
     314      444        2     1.49286    3.38066   18.31364    6.31258
     315      444        2     1.52621    3.87539   11.33626   14.56322
     316      444        2     1.56364    4.38576   13.01176    6.33343
     317      444        2     1.54352   -2.54966   16.95769   14.59838
     318      444        2     1.53218   -1.62038   18.18157    6.28082
     319      444        2     1.55843   -1.45110   11.53246   14.48302
     320      444        2     1.58773   -0.92928   13.02078    6.38569
     321      444        3     0.18626    4.48820   17.89023   12.03364
     322      444        3     0.17600    4.88532   19.06838    3.96945
     323      444        3     0.16870    5.56332   11.96459   12.13143
     324      444        3     0.16630    6.13121   13.50794    3.87598
     325      444        3     0.17862   -1.07495   17.92789   12.08606
     326      444        3     0.17200   -0.18614   19.11971    3.80434
     327      444        3     0.16071    0.37111   11.90504   12.04771
     328      444        3     0.17482    0.78218   13.49818    3.99474
     329      444        3     0.18840    3.04565   18.92192   12.11869
     330      444        3     0.18025    3.41781   20.05322    3.88624
     331      444        3     0.16501    4.22360   13.11682   12.06122
     332      444        3     0.16716    4.81372   14.68288    3.87336
     333      444        3     0.17449   -2.53886   18.91243   12.22171
     334      444        3     0.17825   -1.66796   20.06711    3.94532
     335      444        3     0.16725   -0.91819   13.11519   11.99164
     336      444        3     0.16826   -0.53045   14.67495    3.84090
     337      444        3     0.17731    1.60994   16.81377   12.49119
     338      444        3     0.18522    1.99620   18.01489    4.41570
     339      444        3     0.16472    2.57946   11.24658   12.58027
     340      444        3     0.16367    3.14184   12.80428    4.31206
     341      444        3     0.17052   -3.90233   16.78324   12.67057
     342      444        3     0.17666   -3.00893   17.95727    4.37403
     343      444        3     0.16988   -2.63400   11.28473   12.46262
     344      444        3     0.15999   -2.22542   12.88309    4.39807
     345      444        3     0.18254    3.09125   15.85028   12.58134
     346      444        3     0.18499    3.43913   16.98205    4.35948
     347      444        3     0.16311    3.90297   10.07863   12.57399
     348      444        3     0.16585    4.47659   11.64725    4.39197
     349      444        3     0.17972   -2.42731   15.82531   12.52488
     350      444        3     0.16833   -1.54027   16.97986    4.23659
     351      444        3     0.16248   -1.32264   10.10528   12.60287
     352      444        3     0.17164   -0.94406   11.66479    4.44411
     353      444        4    -0.44456    3.39891   17.90627   11.88834
     354      444        4    -0.45238    3.81526   19.04299    3.71694
     355      444        4    -0.44098    4.49393   12.06329   11.89969
     356      444        4    -0.44142    5.05874   13.63007    3.66948
     357      444        4    -0.44060   -2.16658   17.91328   11.95246
     358      444        4    -0.45029   -1.27542   19.08067    3.65809
     359      444        4    -0.44979   -0.69624   12.05025   11.83242
     360      444        4    -0.44522   -0.27787   13.61145    3.72470
     361      444        4    -0.45252    2.67905   16.85526   12.74583
     362      444        4    -0.44368    3.08359   18.00020    4.57502
     363      444        4    -0.43116    3.65378   11.12987   12.78062
     364      444        4    -0.43732    4.20970   12.70238    4.54922
     365      444        4    -0.44495   -2.81205   16.81524   12.81089
     366      444        4    -0.43587   -1.91760   17.97620    4.50897
     367      444        4    -0.43973   -1.57215   11.16894   12.72469
     368      444        4    -0.45316   -1.15905   12.72991    4.61212
     369      444        5    -0.93263    3.84680   18.74699    9.27373
     370      444        5    -0.89004    4.71435   19.73018    1.26758
     371      444        5    -0.89500    5.35495   12.60885    9.37360
     372      444        5    -0.91759    5.52745   14.66357    1.20321
     373      444        5    -0.91338   -1.61505   18.76189    9.39287
     374      444        5    -0.89968   -0.89911   20.23060    1.25095
     375      444        5    -0.89425    0.07307   12.65522    9.32309
     376      444        5    -0.88252    0.57009   14.21510    1.22190