Created on Tue Feb 06 15:03:40 2018 

        3780 atoms
        4428 bonds
        8208 angles
        9720 dihedrals
        6156 impropers

           6 atom types
          11 bond types
          18 angle types
           4 dihedral types
           1 improper types
           0.000000  34.884000 xlo xhi
           0.000000  37.476907 ylo yhi
           0.000000  36.755988 zlo zhi
         -10.814319 -10.831503  -7.306021 xy xz yz

Masses

    1    58.933195000 # Co3+2
    2     1.007940000 # H_
    3    12.010700000 # C_R
    4    12.010700000 # C_2
    5    14.006700000 # N_R
    6    15.999400000 # O_R

Bond Coeffs

    1       37.245774        2.480000  # Co3+2 Co3+2
    2      156.795150        1.853844  # Co3+2 O_R
    3      159.209869        1.907467  # Co3+2 N_R
    4      357.440381        1.081418  # H_ C_R
    5      354.483902        1.084416  # H_ C_2
    6      462.655054        1.379256  # C_R C_R
    7      391.669513        1.458000  # C_R C_R
    8      646.680887        1.311940  # C_R O_R
    9      663.718927        1.345073  # C_R N_R
   10      389.261715        1.461000  # C_R C_2
   11      517.346067        1.328833  # C_2 C_2

Angle Coeffs

    1                      fourier       49.128679        0.343737        0.374972        0.281246 # O_R Co3+2 O_R
    2                      fourier       50.566920        0.343737        0.374972        0.281246 # N_R Co3+2 O_R
    3                      fourier       12.576179        0.343737        0.374972        0.281246 # Co3+2 Co3+2 O_R
    4                      fourier       13.123726        0.343737        0.374972        0.281246 # Co3+2 Co3+2 N_R
    5              cosine/periodic      101.626578              -1               3 # C_R C_R C_R
    6              cosine/periodic      117.010657              -1               3 # C_R C_R C_R
    7              cosine/periodic       76.817955              -1               3 # C_R C_R H_
    8              cosine/periodic      217.450257              -1               3 # O_R C_R O_R
    9              cosine/periodic      137.761490              -1               3 # C_R C_R O_R
   10              cosine/periodic      109.704024              -1               3 # N_R C_R H_
   11              cosine/periodic      165.695700              -1               3 # N_R C_R C_R
   12              cosine/periodic      101.089243              -1               3 # C_2 C_R C_R
   13              cosine/periodic      110.514224              -1               3 # C_R C_2 C_2
   14              cosine/periodic       84.775358              -1               3 # C_2 C_2 H_
   15              cosine/periodic       64.722957              -1               3 # C_R C_2 H_
   16              cosine/periodic       34.827358              -1               3 # Co3+2 N_R C_R
   17              cosine/periodic      132.654363              -1               3 # C_R N_R C_R
   18              cosine/periodic       49.310114              -1               3 # Co3+2 O_R C_R

Dihedral Coeffs

    1        1.497136              -1               2 # C_R C_R C_R H_
    2        0.555556              -1               2 # C_R C_R C_R O_R
    3        2.245703              -1               2 # C_R C_R O_R Co3+2
    4        2.165197              -1               2 # C_R C_2 C_2 C_R

Improper Coeffs

    1        2.000000        1.000000       -1.000000        0.000000               0 # C_R C_R C_R C_R

Pair Coeffs

    1        0.014000        2.558661 # Co3+2 Co3+2
    2        0.044000        2.571134 # H_ H_
    3        0.105000        3.430851 # C_R C_R
    4        0.105000        3.430851 # C_2 C_2
    5        0.069000        3.260689 # N_R N_R
    6        0.060000        3.118146 # O_R O_R

Atoms

       1      444        1     0.89896    4.12254    0.43797    9.10642
       2      444        1     0.89896    6.09982    1.21024   10.04786
       3      444        1     0.89896    0.28986    9.61907    3.14509
       4      444        1     0.89896   -1.68765    8.84666    2.20438
       5      444        2     0.10679    8.84611    3.46381    2.05233
       6      444        2     0.10679   -2.58739    3.44857    4.52295
       7      444        2     0.10679    8.21381    2.72381    6.74656
       8      444        2     0.10679    4.97859    0.60422    4.86257
       9      444        2     0.10679    4.81218    0.54678    2.38130
      10      444        2     0.10679    5.66071    1.26814    0.16467
      11      444        2     0.10679    1.46633   -0.49554   10.16597
      12      444        2     0.10679   -0.79871   -1.10655    9.32867
      13      444        2     0.10679    0.70754   -0.48047    5.32251
      14      444        2     0.10679    2.89413    0.06654    6.32987
      15      444        2     0.10679    9.32968   -1.50346    7.56377
      16      444        2     0.10679    1.38418    8.72162    8.44763
      17      444        2     0.10679    1.17074    6.29694    7.96772
      18      444        2     0.10679    2.02419    3.97457    8.24339
      19      444        2     0.10679    5.24536    5.40493   10.71045
      20      444        2     0.10679   -6.22221    7.82490   11.26069
      21      444        2     0.10679    4.55661   10.14040   10.98759
      22      444        2     0.10679   -2.85956   -0.00404   10.71266
      23      444        2     0.10679   -0.59143    0.69925   11.46530
      24      444        2     0.10679   -2.12145    4.73715   11.71903
      25      444        2     0.10679   -4.30886    3.85549   10.99004
      26      444        2     0.10679    0.93086    2.36943   12.12200
      27      444        2     0.10679   -4.43303    6.59153   10.20028
      28      444        2     0.10679    6.97577    6.60371    7.72942
      29      444        2     0.10679   -3.79892    7.32800    5.50556
      30      444        2     0.10679   -0.56634    9.45188    7.38918
      31      444        2     0.10679   -0.40078    9.51090    9.87058
      32      444        2     0.10679   -1.24994    8.79096   12.08745
      33      444        2     0.10679    2.94550   10.55343    2.08627
      34      444        2     0.10679    5.21101   11.16300    2.92333
      35      444        2     0.10679    3.70598   10.53254    6.92948
      36      444        2     0.10679    1.51892    9.98718    5.92225
      37      444        2     0.10679   -4.95810   11.46259    4.68823
      38      444        2     0.10679    3.02786    1.33522    3.80510
      39      444        2     0.10679    3.24232    3.76015    4.28305
      40      444        2     0.10679    2.38930    6.08257    4.00640
      41      444        2     0.10679   -0.83286    4.65161    1.54093
      42      444        2     0.10679   10.63380    2.23128    0.99217
      43      444        2     0.10679   -0.14521   -0.08413    1.26600
      44      444        2     0.10679    7.27160   10.06036    1.53995
      45      444        2     0.10679    5.00372    9.35714    0.78658
      46      444        2     0.10679    6.53439    5.31960    0.53100
      47      444        2     0.10679    8.72153    6.20119    1.26098
      48      444        2     0.10679    3.51975    7.71270    0.00000
      49      444        3    -0.01246    7.30840    2.42401    0.97330
      50      444        3    -0.11744    7.96066    2.83522    2.12793
      51      444        3    -0.01246    7.49917    2.44727    3.40593
      52      444        3    -0.11744    8.16932    2.83259    4.59964
      53      444        3    -0.11744    7.70139    2.43534    5.82950
      54      444        3    -0.01246    6.52384    1.64250    5.93376
      55      444        3    -0.11744    5.85951    1.23978    4.78306
      56      444        3    -0.01246    6.32697    1.61982    3.50407
      57      444        3    -0.11744    5.67881    1.20450    2.30730
      58      444        3    -0.11744    6.15121    1.59956    1.07805
      59      444        3     0.65492    4.21814    0.36256   11.88640
      60      444        3     0.65492    6.00822    1.27459    7.27732
      61      444        3     0.17312    1.24815   -0.50765    9.09993
      62      444        3    -0.11744   -0.01015   -0.84071    8.62418
      63      444        3    -0.01246   -0.27208   -0.84403    7.24142
      64      444        3    -0.11744    0.81179   -0.50233    6.40608
      65      444        3     0.17312    2.04381   -0.19025    6.95901
      66      444        4    -0.11744   -1.60476   -1.18866    6.77192
      67      444        3    -0.01246    2.91569    9.57456    9.68753
      68      444        3    -0.11744    2.26752    8.52401    9.05177
      69      444        3    -0.01246    2.73029    7.19485    9.18042
      70      444        3    -0.11744    2.06477    6.10059    8.56218
      71      444        3    -0.11744    2.53329    4.81581    8.71080
      72      444        3    -0.01246    3.70603    4.55887    9.47447
      73      444        3    -0.11744    4.36687    5.60776   10.09932
      74      444        3    -0.01246    3.89839    6.93543    9.97876
      75      444        3    -0.11744    4.54254    8.02723   10.62603
      76      444        3    -0.11744    4.06980    9.31007   10.47913
      77      444        3     0.65492    6.00087   -1.53202    9.58314
      78      444        3     0.65492    4.21897    3.16884    9.57702
      79      444        3     0.17312   -2.64583    1.03646   10.94936
      80      444        3    -0.11744   -1.38628    1.43885   11.36434
      81      444        3    -0.01246   -1.13028    2.79102   11.65900
      82      444        3    -0.11744   -2.22105    3.67297   11.51173
      83      444        3     0.17312   -3.45377    3.19103   11.10031
      84      444        4    -0.11744    0.20379    3.18511   12.08402
      85      444        3    -0.01246   -2.89612    7.63340   11.27796
      86      444        3    -0.11744   -3.54766    7.22061   10.12382
      87      444        3    -0.01246   -3.08611    7.60783    8.84631
      88      444        3    -0.11744   -3.75503    7.22051    7.65260
      89      444        3    -0.11744   -3.28685    7.61783    6.42164
      90      444        3    -0.01246   -2.11056    8.41190    6.31835
      91      444        3    -0.11744   -1.44680    8.81555    7.46906
      92      444        3    -0.01246   -1.91404    8.43577    8.74756
      93      444        3    -0.11744   -1.26713    8.85279    9.94482
      94      444        3    -0.11744   -1.73975    8.45832   11.17419
      95      444        3     0.65492    0.19386    9.69517    0.36511
      96      444        3     0.65492   -1.59546    8.78081    4.97492
      97      444        3     0.17312    3.16438   10.56446    3.15121
      98      444        3    -0.11744    4.42253   10.89659    3.62806
      99      444        3    -0.01246    4.68520   10.89847    5.00984
     100      444        3    -0.11744    3.60130   10.55589    5.84604
     101      444        3     0.17312    2.36909   10.24455    5.29311
     102      444        4    -0.11744    6.01771   11.24257    5.48020
     103      444        3    -0.01246    1.49599    0.48200    2.56581
     104      444        3    -0.11744    2.14454    1.53284    3.20047
     105      444        3    -0.01246    1.68245    2.86202    3.07096
     106      444        3    -0.11744    2.34790    3.95638    3.68908
     107      444        3    -0.11744    1.87989    5.24123    3.53948
     108      444        3    -0.01246    0.70689    5.49806    2.77618
     109      444        3    -0.11744    0.04592    4.44905    2.15157
     110      444        3    -0.01246    0.51361    3.12115    2.27360
     111      444        3    -0.11744   -0.13038    2.02923    1.62633
     112      444        3    -0.11744    0.34201    0.74651    1.77335
     113      444        3     0.65492   -1.58908   11.58862    2.67020
     114      444        3     0.65492    0.19370    6.88807    2.67412
     115      444        3     0.17312    7.05820    9.02003    1.30239
     116      444        3    -0.11744    5.79868    8.61760    0.88729
     117      444        3    -0.01246    5.54290    7.26552    0.59202
     118      444        3    -0.11744    6.63380    6.38368    0.73892
     119      444        3     0.17312    7.86641    6.86559    1.15071
     120      444        4    -0.11744    4.20891    6.87145    0.16675
     121      444        5    -0.32066    2.28142   -0.18397    8.29301
     122      444        5    -0.32066   -3.68599    1.88703   10.81422
     123      444        5    -0.32066    2.13102   10.23978    3.95923
     124      444        5    -0.32066    8.09834    8.16943    1.43765
     125      444        6    -0.57245    3.47158    0.10923   10.87450
     126      444        6    -0.57245    5.38100    0.89599   11.80798
     127      444        6    -0.57245    4.83549    0.76114    7.35867
     128      444        6    -0.57245    6.76268    1.51596    8.28296
     129      444        6    -0.57245    6.74801   -0.58915   10.02850
     130      444        6    -0.57245    4.83818   -1.35057    9.07530
     131      444        6    -0.57245    5.39041    2.98833   10.06747
     132      444        6    -0.57245    3.46268    2.22965    9.14697
     133      444        6    -0.57245    0.94010    9.94835    1.37786
     134      444        6    -0.57245   -0.96899    9.16164    0.44352
     135      444        6    -0.57245   -0.42288    9.29472    4.89357
     136      444        6    -0.57245   -2.35018    8.54012    3.96928
     137      444        6    -0.57245   -2.33614   10.64591    2.22435
     138      444        6    -0.57245   -0.42638   11.40729    3.17817
     139      444        6    -0.57245   -0.97780    7.06878    2.18380
     140      444        6    -0.57245    0.95113    7.82824    3.09976
     141      444        1     0.89896    0.51204   -1.99737   21.35841
     142      444        1     0.89896    2.48932   -1.22510   22.29986
     143      444        1     0.89896   -3.32064    7.18373   15.39708
     144      444        1     0.89896   -5.29815    6.41132   14.45638
     145      444        2     0.10679    5.23560    1.02847   14.30433
     146      444        2     0.10679   -6.19789    1.01323   16.77494
     147      444        2     0.10679    4.60331    0.28847   18.99856
     148      444        2     0.10679    1.36809   -1.83112   17.11457
     149      444        2     0.10679    1.20168   -1.88856   14.63329
     150      444        2     0.10679    2.05021   -1.16720   12.41666
     151      444        2     0.10679   -2.14418   -2.93088   22.41797
     152      444        2     0.10679   -4.40921   -3.54189   21.58067
     153      444        2     0.10679   -2.90296   -2.91581   17.57451
     154      444        2     0.10679   -0.71637   -2.36880   18.58187
     155      444        2     0.10679    5.71918   -3.93880   19.81577
     156      444        2     0.10679   -2.22632    6.28628   20.69962
     157      444        2     0.10679   -2.43976    3.86160   20.21971
     158      444        2     0.10679   -1.58631    1.53923   20.49538
     159      444        2     0.10679    1.63485    2.96959   22.96245
     160      444        2     0.10679   -9.83271    5.38956   23.51268
     161      444        2     0.10679    0.94611    7.70506   23.23959
     162      444        2     0.10679   -6.47006   -2.43938   22.96465
     163      444        2     0.10679   -4.20193   -1.73609   23.71729
     164      444        2     0.10679   -5.73195    2.30181   23.97103
     165      444        2     0.10679   -7.91936    1.42015   23.24204
     166      444        2     0.10679   -2.67964   -0.06591   24.37400
     167      444        2     0.10679   -8.04354    4.15619   22.45227
     168      444        2     0.10679    3.36527    4.16837   19.98141
     169      444        2     0.10679   -7.40943    4.89266   17.75755
     170      444        2     0.10679   -4.17684    7.01654   19.64117
     171      444        2     0.10679   -4.01128    7.07556   22.12257
     172      444        2     0.10679   -4.86044    6.35562   24.33945
     173      444        2     0.10679   -0.66500    8.11809   14.33827
     174      444        2     0.10679    1.60051    8.72766   15.17532
     175      444        2     0.10679    0.09547    8.09720   19.18148
     176      444        2     0.10679   -2.09158    7.55183   18.17424
     177      444        2     0.10679   -8.56860    9.02725   16.94022
     178      444        2     0.10679   -0.58264   -1.10012   16.05710
     179      444        2     0.10679   -0.36818    1.32481   16.53505
     180      444        2     0.10679   -1.22120    3.64723   16.25840
     181      444        2     0.10679   -4.44336    2.21627   13.79293
     182      444        2     0.10679    7.02330   -0.20406   13.24416
     183      444        2     0.10679   -3.75571   -2.51947   13.51799
     184      444        2     0.10679    3.66110    7.62502   13.79195
     185      444        2     0.10679    1.39322    6.92180   13.03857
     186      444        2     0.10679    2.92389    2.88426   12.78300
     187      444        2     0.10679    5.11103    3.76585   13.51297
     188      444        2     0.10679   -0.09075    5.27736   12.25200
     189      444        3    -0.01246    3.69790   -0.01133   13.22529
     190      444        3    -0.11744    4.35016    0.39988   14.37992
     191      444        3    -0.01246    3.88867    0.01193   15.65793
     192      444        3    -0.11744    4.55882    0.39725   16.85164
     193      444        3    -0.11744    4.09089   -0.00000   18.08150
     194      444        3    -0.01246    2.91334   -0.79284   18.18576
     195      444        3    -0.11744    2.24901   -1.19556   17.03505
     196      444        3    -0.01246    2.71647   -0.81553   15.75607
     197      444        3    -0.11744    2.06831   -1.23084   14.55929
     198      444        3    -0.11744    2.54071   -0.83578   13.33005
     199      444        3     0.65492    0.60764   -2.07278   24.13839
     200      444        3     0.65492    2.39772   -1.16075   19.52931
     201      444        3     0.17312   -2.36236   -2.94299   21.35192
     202      444        3    -0.11744   -3.62065   -3.27605   20.87618
     203      444        3    -0.01246   -3.88258   -3.27937   19.49342
     204      444        3    -0.11744   -2.79871   -2.93767   18.65807
     205      444        3     0.17312   -1.56669   -2.62559   19.21101
     206      444        4    -0.11744   -5.21526   -3.62400   19.02392
     207      444        3    -0.01246   -0.69481    7.13922   21.93953
     208      444        3    -0.11744   -1.34298    6.08867   21.30377
     209      444        3    -0.01246   -0.88021    4.75951   21.43242
     210      444        3    -0.11744   -1.54574    3.66525   20.81418
     211      444        3    -0.11744   -1.07721    2.38047   20.96280
     212      444        3    -0.01246    0.09553    2.12353   21.72646
     213      444        3    -0.11744    0.75637    3.17242   22.35132
     214      444        3    -0.01246    0.28789    4.50009   22.23076
     215      444        3    -0.11744    0.93203    5.59189   22.87803
     216      444        3    -0.11744    0.45929    6.87473   22.73113
     217      444        3     0.65492    2.39037   -3.96736   21.83514
     218      444        3     0.65492    0.60847    0.73350   21.82901
     219      444        3     0.17312   -6.25633   -1.39889   23.20136
     220      444        3    -0.11744   -4.99678   -0.99649   23.61634
     221      444        3    -0.01246   -4.74078    0.35568   23.91100
     222      444        3    -0.11744   -5.83155    1.23763   23.76373
     223      444        3     0.17312   -7.06428    0.75569   23.35230
     224      444        4    -0.11744   -3.40672    0.74976   24.33602
     225      444        3    -0.01246   -6.50662    5.19806   23.52996
     226      444        3    -0.11744   -7.15816    4.78527   22.37582
     227      444        3    -0.01246   -6.69661    5.17249   21.09830
     228      444        3    -0.11744   -7.36553    4.78517   19.90459
     229      444        3    -0.11744   -6.89736    5.18249   18.67363
     230      444        3    -0.01246   -5.72106    5.97656   18.57035
     231      444        3    -0.11744   -5.05730    6.38021   19.72106
     232      444        3    -0.01246   -5.52455    6.00043   20.99955
     233      444        3    -0.11744   -4.87763    6.41744   22.19682
     234      444        3    -0.11744   -5.35025    6.02298   23.42618
     235      444        3     0.65492   -3.41664    7.25983   12.61711
     236      444        3     0.65492   -5.20596    6.34547   17.22692
     237      444        3     0.17312   -0.44612    8.12912   15.40321
     238      444        3    -0.11744    0.81203    8.46125   15.88006
     239      444        3    -0.01246    1.07470    8.46313   17.26184
     240      444        3    -0.11744   -0.00920    8.12055   18.09804
     241      444        3     0.17312   -1.24141    7.80921   17.54510
     242      444        4    -0.11744    2.40721    8.80723   17.73219
     243      444        3    -0.01246   -2.11451   -1.95334   14.81781
     244      444        3    -0.11744   -1.46596   -0.90250   15.45246
     245      444        3    -0.01246   -1.92805    0.42668   15.32296
     246      444        3    -0.11744   -1.26260    1.52104   15.94107
     247      444        3    -0.11744   -1.73061    2.80589   15.79148
     248      444        3    -0.01246   -2.90361    3.06272   15.02818
     249      444        3    -0.11744   -3.56459    2.01371   14.40357
     250      444        3    -0.01246   -3.09689    0.68581   14.52560
     251      444        3    -0.11744   -3.74088   -0.40611   13.87833
     252      444        3    -0.11744   -3.26849   -1.68883   14.02535
     253      444        3     0.65492   -5.19959    9.15328   14.92220
     254      444        3     0.65492   -3.41680    4.45273   14.92612
     255      444        3     0.17312    3.44770    6.58469   13.55438
     256      444        3    -0.11744    2.18817    6.18226   13.13929
     257      444        3    -0.01246    1.93240    4.83018   12.84401
     258      444        3    -0.11744    3.02330    3.94834   12.99091
     259      444        3     0.17312    4.25591    4.43025   13.40270
     260      444        4    -0.11744    0.59841    4.43611   12.41875
     261      444        5    -0.32066   -1.32909   -2.61931   20.54500
     262      444        5    -0.32066   -7.29650   -0.54831   23.06622
     263      444        5    -0.32066   -1.47948    7.80443   16.21123
     264      444        5    -0.32066    4.48784    5.73409   13.68965
     265      444        6    -0.57245   -0.13892   -2.32611   23.12650
     266      444        6    -0.57245    1.77050   -1.53935   24.05998
     267      444        6    -0.57245    1.22499   -1.67420   19.61067
     268      444        6    -0.57245    3.15218   -0.91938   20.53496
     269      444        6    -0.57245    3.13751   -3.02449   22.28050
     270      444        6    -0.57245    1.22768   -3.78591   21.32729
     271      444        6    -0.57245    1.77991    0.55299   22.31946
     272      444        6    -0.57245   -0.14782   -0.20569   21.39897
     273      444        6    -0.57245   -2.67040    7.51301   13.62986
     274      444        6    -0.57245   -4.57949    6.72630   12.69552
     275      444        6    -0.57245   -4.03338    6.85938   17.14557
     276      444        6    -0.57245   -5.96068    6.10478   16.22128
     277      444        6    -0.57245   -5.94664    8.21057   14.47635
     278      444        6    -0.57245   -4.03688    8.97195   15.43016
     279      444        6    -0.57245   -4.58830    4.63344   14.43579
     280      444        6    -0.57245   -2.65938    5.39290   15.35175
     281      444        1     0.89896   -3.09846   -4.43271   33.61041
     282      444        1     0.89896   -1.12118   -3.66044   34.55185
     283      444        1     0.89896   -6.93114    4.74839   27.64908
     284      444        1     0.89896   -8.90865    3.97598   26.70837
     285      444        2     0.10679    1.62510   -1.40687   26.55632
     286      444        2     0.10679   -9.80840   -1.42212   29.02694
     287      444        2     0.10679    0.99281   -2.14687   31.25055
     288      444        2     0.10679   -2.24241   -4.26646   29.36656
     289      444        2     0.10679   -2.40882   -4.32390   26.88529
     290      444        2     0.10679   -1.56029   -3.60254   24.66866
     291      444        2     0.10679   -5.75468   -5.36622   34.66996
     292      444        2     0.10679   -8.01971   -5.97723   33.83266
     293      444        2     0.10679   -6.51346   -5.35115   29.82650
     294      444        2     0.10679   -4.32687   -4.80414   30.83386
     295      444        2     0.10679    2.10868   -6.37414   32.06776
     296      444        2     0.10679   -5.83682    3.85094   32.95162
     297      444        2     0.10679   -6.05027    1.42626   32.47171
     298      444        2     0.10679   -5.19681   -0.89611   32.74738
     299      444        2     0.10679   -1.97565    0.53425   35.21444
     300      444        2     0.10679  -13.44321    2.95422   35.76468
     301      444        2     0.10679   -2.66439    5.26972   35.49158
     302      444        2     0.10679  -10.08056   -4.87472   35.21665
     303      444        2     0.10679   -7.81243   -4.17143   35.96929
     304      444        2     0.10679   -9.34245   -0.13353   36.22303
     305      444        2     0.10679  -11.52986   -1.01519   35.49403
     306      444        2     0.10679   -6.29014   -2.50125   36.62599
     307      444        2     0.10679  -11.65404    1.72085   34.70427
     308      444        2     0.10679   -0.24523    1.73303   32.23341
     309      444        2     0.10679  -11.01993    2.45732   30.00955
     310      444        2     0.10679   -7.78734    4.58120   31.89317
     311      444        2     0.10679   -7.62178    4.64022   34.37457
     312      444        2     0.10679   -8.47094    3.92028   36.59144
     313      444        2     0.10679   -4.27550    5.68275   26.59026
     314      444        2     0.10679   -2.00999    6.29232   27.42732
     315      444        2     0.10679   -3.51503    5.66186   31.43348
     316      444        2     0.10679   -5.70209    5.11649   30.42624
     317      444        2     0.10679  -12.17910    6.59191   29.19222
     318      444        2     0.10679   -4.19314   -3.53546   28.30909
     319      444        2     0.10679   -3.97868   -1.11053   28.78704
     320      444        2     0.10679   -4.83170    1.21189   28.51039
     321      444        2     0.10679   -8.05387   -0.21907   26.04493
     322      444        2     0.10679    3.41280   -2.63940   25.49616
     323      444        2     0.10679   -7.36621   -4.95482   25.76999
     324      444        2     0.10679    0.05060    5.18968   26.04395
     325      444        2     0.10679   -2.21728    4.48646   25.29057
     326      444        2     0.10679   -0.68661    0.44892   25.03499
     327      444        2     0.10679    1.50053    1.33051   25.76497
     328      444        2     0.10679   -3.70125    2.84202   24.50399
     329      444        3    -0.01246    0.08740   -2.44667   25.47729
     330      444        3    -0.11744    0.73966   -2.03546   26.63192
     331      444        3    -0.01246    0.27816   -2.42341   27.90992
     332      444        3    -0.11744    0.94832   -2.03809   29.10364
     333      444        3    -0.11744    0.48039   -2.43534   30.33349
     334      444        3    -0.01246   -0.69716   -3.22818   30.43776
     335      444        3    -0.11744   -1.36149   -3.63090   29.28705
     336      444        3    -0.01246   -0.89403   -3.25087   28.00806
     337      444        3    -0.11744   -1.54219   -3.66618   26.81129
     338      444        3    -0.11744   -1.06979   -3.27112   25.58205
     339      444        3     0.65492   -3.00286   -4.50812   36.39039
     340      444        3     0.65492   -1.21278   -3.59609   31.78131
     341      444        3     0.17312   -5.97286   -5.37833   33.60392
     342      444        3    -0.11744   -7.23115   -5.71139   33.12817
     343      444        3    -0.01246   -7.49308   -5.71471   31.74541
     344      444        3    -0.11744   -6.40921   -5.37301   30.91007
     345      444        3     0.17312   -5.17719   -5.06093   31.46300
     346      444        4    -0.11744   -8.82576   -6.05934   31.27592
     347      444        3    -0.01246   -4.30531    4.70388   34.19152
     348      444        3    -0.11744   -4.95348    3.65333   33.55577
     349      444        3    -0.01246   -4.49071    2.32417   33.68441
     350      444        3    -0.11744   -5.15624    1.22991   33.06618
     351      444        3    -0.11744   -4.68772   -0.05487   33.21479
     352      444        3    -0.01246   -3.51498   -0.31181   33.97846
     353      444        3    -0.11744   -2.85413    0.73708   34.60331
     354      444        3    -0.01246   -3.32262    2.06475   34.48275
     355      444        3    -0.11744   -2.67847    3.15655   35.13003
     356      444        3    -0.11744   -3.15121    4.43939   34.98312
     357      444        3     0.65492   -1.22013   -6.40270   34.08714
     358      444        3     0.65492   -3.00203   -1.70184   34.08101
     359      444        3     0.17312   -9.86683   -3.83423   35.45336
     360      444        3    -0.11744   -8.60728   -3.43183   35.86833
     361      444        3    -0.01246   -8.35128   -2.07966   36.16299
     362      444        3    -0.11744   -9.44205   -1.19771   36.01572
     363      444        3     0.17312  -10.67478   -1.67965   35.60430
     364      444        4    -0.11744   -7.01722   -1.68558   36.58801