Created on Tue Feb 06 15:41:15 2018 

        2496 atoms
        2808 bonds
        4816 angles
        5984 dihedrals
        4008 impropers

           5 atom types
           8 bond types
          15 angle types
           3 dihedral types
           1 improper types
           0.000000  47.432000 xlo xhi
           0.000000  28.770741 ylo yhi
           0.000000  34.861505 zlo zhi
           1.205851  -2.083993   0.134931 xy xz yz

Masses

    1   112.411000000 # Cd3+2
    2     1.007940000 # H_
    3    12.010700000 # C_R
    4    14.006700000 # N_R
    5    15.999400000 # O_R

Bond Coeffs

    1      152.700732        2.089900  # Cd3+2 N_R
    2      147.192711        2.045725  # Cd3+2 O_R
    3      357.440381        1.081418  # H_ C_R
    4      529.459447        1.043423  # H_ N_R
    5      663.718927        1.345073  # C_R N_R
    6      462.655054        1.379256  # C_R C_R
    7      391.669513        1.458000  # C_R C_R
    8      646.680887        1.311940  # C_R O_R

Angle Coeffs

    1                      fourier       31.469575        0.343737        0.374972        0.281246 # O_R Cd3+2 N_R
    2                      fourier       30.023701        0.343737        0.374972        0.281246 # O_R Cd3+2 O_R
    3                      fourier       33.010492        0.343737        0.374972        0.281246 # N_R Cd3+2 N_R
    4              cosine/periodic      165.695700              -1               3 # N_R C_R C_R
    5              cosine/periodic      109.704024              -1               3 # H_ C_R N_R
    6              cosine/periodic       76.817955              -1               3 # H_ C_R C_R
    7              cosine/periodic      117.010657              -1               3 # C_R C_R C_R
    8              cosine/periodic      101.626578              -1               3 # C_R C_R C_R
    9              cosine/periodic      137.761490              -1               3 # O_R C_R C_R
   10              cosine/periodic      217.450257              -1               3 # O_R C_R O_R
   11              cosine/periodic       33.294741              -1               3 # C_R N_R Cd3+2
   12              cosine/periodic      132.654363              -1               3 # C_R N_R C_R
   13              cosine/periodic       65.483679              -1               3 # H_ N_R H_
   14              cosine/periodic       89.115099              -1               3 # C_R N_R H_
   15              cosine/periodic       45.673393              -1               3 # Cd3+2 O_R C_R

Dihedral Coeffs

    1        1.497136              -1               2 # H_ C_R N_R Cd3+2
    2        0.555556              -1               2 # C_R C_R C_R C_R
    3        2.245703              -1               2 # H_ C_R N_R C_R

Improper Coeffs

    1        2.000000        1.000000       -1.000000        0.000000               0 # H_ C_R N_R C_R

Pair Coeffs

    1        0.228000        2.537280 # Cd3+2 Cd3+2
    2        0.044000        2.571134 # H_ H_
    3        0.105000        3.430851 # C_R C_R
    4        0.069000        3.260689 # N_R N_R
    5        0.060000        3.118146 # O_R O_R

Atoms

       1      444        1     0.95923   -0.60491    9.22443   17.17069
       2      444        1     0.95923   11.24256    9.21842   17.15970
       3      444        1     0.95923    0.31933    5.18085    0.28970
       4      444        1     0.95923   12.18289    5.17409    0.28238
       5      444        1     0.95923    0.08200   12.41273    8.44363
       6      444        1     0.95923   11.94232   12.42256    8.43718
       7      444        1     0.95923   23.22090    1.99833    8.99897
       8      444        1     0.95923   11.35659    2.00938    8.99619
       9      444        2     0.10175    8.79257    7.84527   15.49943
      10      444        2     0.10175   20.66043    8.00914   15.46143
      11      444        2     0.10175    7.30365   10.57680    1.20865
      12      444        2     0.10175   19.16997   10.43330    1.42218
      13      444        2     0.10175    9.79137   10.53452    1.15566
      14      444        2     0.10175   21.66387   10.40166    1.36012
      15      444        2     0.10175    6.29934    7.73802   15.43232
      16      444        2     0.10175   18.16221    7.91672   15.38368
      17      444        2     0.10175    9.70936    6.64090    1.85289
      18      444        2     0.10175   21.59208    6.55304    2.00454
      19      444        2     0.10175    6.17722    3.81126   16.20119
      20      444        2     0.10175   18.01270    4.12110   16.05372
      21      444        2     0.10175    8.65884    3.92992   16.21409
      22      444        2     0.10175   20.51013    4.21972   16.07098
      23      444        2     0.10175    7.21622    6.68178    1.94946
      24      444        2     0.10175   19.09264    6.59321    2.12463
      25      444        2     0.10175    2.55123   13.18855    6.51108
      26      444        2     0.10175   14.40428   13.18988    6.47657
      27      444        2     0.10175    5.05019   11.70590   10.47135
      28      444        2     0.10175   16.90583   11.66715   10.41993
      29      444        2     0.10175    2.55576   11.79016   10.40215
      30      444        2     0.10175   14.40920   11.77710   10.36067
      31      444        2     0.10175    5.03918   13.13124    6.38436
      32      444        2     0.10175   16.89121   13.10826    6.33852
      33      444        2     0.10175    1.97698    0.55532   10.48791
      34      444        2     0.10175   13.82973    0.51347   10.46194
      35      444        2     0.10175    4.44101    3.60649    7.53863
      36      444        2     0.10175   16.30963    3.56243    7.52538
      37      444        2     0.10175    1.96495    3.47305    7.54612
      38      444        2     0.10175   13.83201    3.44558    7.53357
      39      444        2     0.10175    4.46776    0.50381   10.55781
      40      444        2     0.10175   16.31885    0.44657   10.53009
      41      444        2     0.10175    2.76471    5.74693    2.31951
      42      444        2     0.10175   14.62385    5.33367    2.39899
      43      444        2     0.10175    4.25386    4.77153   15.67408
      44      444        2     0.10175   16.13675    5.37423   15.63521
      45      444        2     0.10175    1.76127    4.77421   15.74712
      46      444        2     0.10175   13.64284    5.31944   15.69639
      47      444        2     0.10175    5.25458    5.72851    2.44797
      48      444        2     0.10175   17.12223    5.35109    2.52903
      49      444        2     0.10175    1.81005    8.59581   15.14732
      50      444        2     0.10175   13.69255    9.07048   15.11909
      51      444        2     0.10175    5.44166    9.45355    1.78561
      52      444        2     0.10175   17.29821    9.09055    1.87764
      53      444        2     0.10175    2.94708    9.35498    1.76661
      54      444        2     0.10175   14.80141    9.03076    1.82151
      55      444        2     0.10175    4.29764    8.69416   14.97040
      56      444        2     0.10175   16.19009    9.14056   14.98435
      57      444        2     0.10175    8.89473    1.24716   10.93710
      58      444        2     0.10175   20.75634    1.21482   10.92943
      59      444        2     0.10175    6.39117    2.77914    6.99949
      60      444        2     0.10175   18.25464    2.71170    6.97579
      61      444        2     0.10175    8.88467    2.70140    7.06538
      62      444        2     0.10175   20.74794    2.63293    7.04551
      63      444        2     0.10175    6.41144    1.31721   11.07445
      64      444        2     0.10175   18.26863    1.26981   11.05807
      65      444        2     0.10175    9.47685   13.91105    7.00437
      66      444        2     0.10175   21.33464   13.86418    6.94860
      67      444        2     0.10175    6.99227   10.82655    9.90154
      68      444        2     0.10175   18.84437   10.80863    9.87121
      69      444        2     0.10175    9.46852   10.93265    9.88568
      70      444        2     0.10175   21.32125   10.92887    9.87173
      71      444        2     0.10175    6.98574   13.97949    6.93552
      72      444        2     0.10175   18.84271   13.92634    6.86772
      73      444        2     0.10175   22.95257    8.66342   13.69587
      74      444        2     0.10175   11.08206    8.66362   13.70301
      75      444        2     0.10175   22.98762    7.01291    9.69603
      76      444        2     0.10175   11.14539    7.02371    9.69847
      77      444        2     0.10175   23.04847    4.39163   13.08352
      78      444        2     0.10175   11.31727    4.39951   13.08283
      79      444        2     0.33497   23.22263    9.35630   10.10147
      80      444        2     0.33497   11.35691    9.36943   10.11053
      81      444        2     0.33497   23.19018   10.05829   11.63311
      82      444        2     0.33497   11.31410   10.06650   11.64479
      83      444        2     0.10175    0.35118    5.74247    3.75894
      84      444        2     0.10175   12.20102    5.74915    3.74744
      85      444        2     0.10175    0.28547    7.38874    7.75982
      86      444        2     0.10175   12.12909    7.39587    7.74797
      87      444        2     0.10175    0.31064   10.01482    4.37407
      88      444        2     0.10175   12.14440   10.02127    4.36170
      89      444        2     0.33497    0.05445    5.04828    7.35351
      90      444        2     0.33497   11.92499    5.05834    7.34724
      91      444        2     0.33497    0.08827    4.34483    5.82152
      92      444        2     0.33497   11.93661    4.35193    5.81821
      93      444        2     0.10175   23.57937   12.97844    4.98345
      94      444        2     0.10175   11.68850   13.00385    5.00437
      95      444        2     0.10175   23.29600    0.20055    0.97926
      96      444        2     0.10175   11.46639    0.19054    0.99390
      97      444        2     0.10175   -0.09496    2.81447    4.35961
      98      444        2     0.10175   11.82024    2.82212    4.35595
      99      444        2     0.33497   23.81020   12.23773    1.38958
     100      444        2     0.33497   11.84329   12.24668    1.40039
     101      444        2     0.33497   23.72094   11.55040    2.92558
     102      444        2     0.33497   11.81524   11.55733    2.94249
     103      444        2     0.10175   -0.28015    1.42531   12.45183
     104      444        2     0.10175   10.92594    1.44877   12.39675
     105      444        2     0.10175    0.08300   14.19271   16.45463
     106      444        2     0.10175   10.96537   14.21300   16.36591
     107      444        2     0.10175   -0.19544   11.57174   13.07882
     108      444        2     0.10175   11.76523   11.57916   13.08230
     109      444        2     0.33497   -0.43523    2.16646   16.05337
     110      444        2     0.33497   10.53792    2.17703   15.97616
     111      444        2     0.33497   -0.33955    2.85430   14.50849
     112      444        2     0.33497   10.75535    2.86780   14.45201
     113      444        3     0.18718    8.18257    8.44710   16.17312
     114      444        3     0.18718   20.05044    8.54683   16.18777
     115      444        3    -0.18371    7.81607    9.91945    0.50549
     116      444        3    -0.18371   19.68520    9.84798    0.66115
     117      444        3     0.18718    9.20638    9.90910    0.47969
     118      444        3     0.18718   21.07608    9.84255    0.62925
     119      444        3    -0.01149    6.05267    9.17443   17.04797
     120      444        3    -0.01149   17.92299    9.19571   17.12554
     121      444        3    -0.18371    6.79384    8.40438   16.13791
     122      444        3    -0.18371   18.66165    8.50906   16.14959
     123      444        3     0.18718    9.10808    6.01994    1.18808
     124      444        3     0.18718   20.98116    6.01862    1.27663
     125      444        3    -0.18371    6.67742    4.49246   16.88831
     126      444        3    -0.18371   18.52862    4.71068   16.81057
     127      444        3     0.18718    8.06700    4.54465   16.89458
     128      444        3     0.18718   19.91774    4.75041   16.81806
     129      444        3    -0.01149    6.98600    5.22051    0.35332
     130      444        3    -0.01149   18.85157    5.33233    0.36971
     131      444        3    -0.18371    7.71878    6.02448    1.24107
     132      444        3    -0.18371   19.59163    6.02499    1.34025
     133      444        3     0.18718    3.15123   12.87128    7.36519
     134      444        3     0.18718   15.00532   12.86271    7.32632
     135      444        3    -0.18371    4.54508   12.02862    9.56077
     136      444        3    -0.18371   16.39988   11.99801    9.51370
     137      444        3     0.18718    3.15636   12.08251    9.53881
     138      444        3     0.18718   15.01198   12.06465    9.49715
     139      444        3    -0.01149    5.27588   12.42074    8.42812
     140      444        3    -0.01149   17.13008   12.38994    8.37949
     141      444        3    -0.18371    4.54024   12.84302    7.30854
     142      444        3    -0.18371   16.39368   12.82102    7.26357
     143      444        3     0.18718    2.57363    1.20467    9.84716
     144      444        3     0.18718   14.42808    1.16294    9.82327
     145      444        3    -0.18371    3.94860    2.88938    8.19402
     146      444        3    -0.18371   15.81288    2.84533    8.17746
     147      444        3     0.18718    2.55899    2.83116    8.19943
     148      444        3     0.18718   14.42260    2.79629    8.18513
     149      444        3    -0.01149    4.68871    2.04977    9.04220
     150      444        3    -0.01149   16.54874    1.99816    9.02181
     151      444        3    -0.18371    3.96193    1.19634    9.88777
     152      444        3    -0.18371   15.81662    1.14546    9.86389
     153      444        3     0.18718    3.37188    5.51944    1.44205
     154      444        3     0.18718   15.23721    5.33622    1.49556
     155      444        3    -0.18371    3.74235    4.99398   16.60959
     156      444        3    -0.18371   15.61721    5.36958   16.59286
     157      444        3     0.18718    2.35284    5.00728   16.63364
     158      444        3     0.18718   14.22862    5.35620   16.61517
     159      444        3    -0.01149    5.50611    5.22027    0.34705
     160      444        3    -0.01149   17.37350    5.33086    0.36936
     161      444        3    -0.18371    4.76096    5.51783    1.50009
     162      444        3    -0.18371   16.62705    5.35184    1.55848
     163      444        3     0.18718    2.43043    8.78688   16.02392
     164      444        3     0.18718   14.30861    9.07054   16.01904
     165      444        3    -0.18371    4.91427    9.25448    0.85341
     166      444        3    -0.18371   16.77568    9.07625    0.92156
     167      444        3     0.18718    3.52623    9.18667    0.85724
     168      444        3     0.18718   15.38627    9.02835    0.90082
     169      444        3    -0.01149    4.57561    9.11384   17.08667
     170      444        3    -0.01149   16.44547    9.15042   17.14280
     171      444        3    -0.18371    3.81721    8.83918   15.93729
     172      444        3    -0.18371   15.69730    9.10978   15.95576
     173      444        3     0.18718    8.29494    1.58379   10.09066
     174      444        3     0.18718   20.15527    1.53684   10.07672
     175      444        3    -0.18371    6.89725    2.44937    7.90589
     176      444        3    -0.18371   18.75965    2.38638    7.88567
     177      444        3     0.18718    8.28593    2.39881    7.92646
     178      444        3     0.18718   20.14840    2.33562    7.90816
     179      444        3    -0.01149    6.16831    2.04564    9.03697
     180      444        3    -0.01149   18.02887    1.98871    9.01763
     181      444        3    -0.18371    6.90646    1.61466   10.15132
     182      444        3    -0.18371   18.76608    1.56319   10.13511
     183      444        3     0.18718    8.87610   13.25263    7.63206
     184      444        3     0.18718   20.73156   13.21341    7.58203
     185      444        3    -0.18371    7.48988   11.54989    9.25712
     186      444        3    -0.18371   19.34264   11.52644    9.22104
     187      444        3     0.18718    8.88028   11.59468    9.24649
     188      444        3     0.18718   20.73273   11.57763    9.21913
     189      444        3    -0.01149    6.75553   12.40907    8.42376
     190      444        3    -0.01149   18.60962   12.37456    8.37513
     191      444        3    -0.18371    7.48775   13.27167    7.59249
     192      444        3    -0.18371   19.34336   13.22790    7.53566
     193      444        3     0.66566   23.00190    6.24622   15.01938
     194      444        3     0.66566   11.17924    6.24262   15.01886
     195      444        3    -0.01149   22.99614    6.50399   13.54457
     196      444        3    -0.01149   11.18478    6.50686   13.54596
     197      444        3    -0.01149   23.03332    5.58741   11.30262
     198      444        3    -0.01149   11.23934    5.59624   11.30262
     199      444        3     0.30251   22.95590    8.00890   11.62230
     200      444        3     0.30251   11.11056    8.01496   11.62771
     201      444        3     0.66566   23.09883    4.38634   10.40651
     202      444        3     0.66566   11.30366    4.39588   10.40598
     203      444        3    -0.18371   22.96282    7.80612   13.02007
     204      444        3    -0.18371   11.11849    7.80903   13.02478
     205      444        3    -0.18371   22.99162    6.88004   10.77743
     206      444        3    -0.18371   11.16378    6.88866   10.78005
     207      444        3    -0.18371   23.02759    5.39938   12.68628
     208      444        3    -0.18371   11.25153    5.40581   12.68575
     209      444        3     0.66566    0.35735    8.15731    2.43856
     210      444        3     0.66566   12.20049    8.16392    2.42514
     211      444        3    -0.01149    0.33951    7.90213    3.91320
     212      444        3    -0.01149   12.17941    7.90836    3.90065
     213      444        3    -0.01149    0.27937    8.81590    6.15480
     214      444        3    -0.01149   12.11500    8.82335    6.14347
     215      444        3     0.30251   -0.08167    6.39416    5.83338
     216      444        3     0.30251   12.18561    6.40154    5.82170
     217      444        3     0.66566    0.20572   10.01394    7.05370
     218      444        3     0.66566   12.03721   10.01975    7.04586
     219      444        3    -0.18371    0.01066    6.59875    4.43613
     220      444        3    -0.18371   12.19126    6.60549    4.42445
     221      444        3    -0.18371    0.29991    7.52243    6.67877
     222      444        3    -0.18371   12.14265    7.52976    6.66691
     223      444        3    -0.18371    0.31200    9.00645    4.77167
     224      444        3    -0.18371   12.14798    9.01312    4.75982
     225      444        3     0.66566   23.23128    0.99714    6.29756
     226      444        3     0.66566   11.37798    1.02654    6.30104
     227      444        3    -0.01149   23.27855    0.72984    4.82501
     228      444        3    -0.01149   11.43492    0.74721    4.83250
     229      444        3    -0.01149   23.49586    1.61822    2.58097
     230      444        3    -0.01149   11.67812    1.61618    2.58515
     231      444        3     0.30251   23.71257   13.61138    2.90745
     232      444        3     0.30251   11.84057   13.61993    2.92540
     233      444        3     0.66566   23.71902    2.79417    1.67579
     234      444        3     0.66566   11.91311    2.78328    1.67283
     235      444        3    -0.18371   23.71045   13.82263    4.30435
     236      444        3    -0.18371   11.84209   13.84043    4.32073
     237      444        3    -0.18371   23.29903    0.33764    2.05997
     238      444        3    -0.18371   11.45750    0.33625    2.07269
     239      444        3    -0.18371   23.47919    1.81546    3.96393
     240      444        3    -0.18371   11.66105    1.82342    3.96602
     241      444        3     0.66566    0.08725   13.40344   11.13825
     242      444        3     0.66566   11.85529   13.41111   11.12744
     243      444        3    -0.01149    0.07144   13.66727   12.61115
     244      444        3    -0.01149   11.64686   13.67998   12.58448
     245      444        3    -0.01149   -0.09016   12.77158   14.85658
     246      444        3    -0.01149   11.36319   12.78343   14.81544
     247      444        3     0.30251   -0.36460    0.78703   14.52888
     248      444        3     0.30251   10.61378    0.81103   14.45062
     249      444        3     0.66566   -0.28047   11.59137   15.76211
     250      444        3     0.66566   11.31700   11.59778   15.72951
     251      444        3    -0.18371   -0.38211    0.57728   13.13093
     252      444        3    -0.18371   10.86123    0.59704   13.07655
     253      444        3    -0.18371    0.07565   14.05611   15.37392
     254      444        3    -0.18371   11.16148   14.07500   15.30403
     255      444        3    -0.18371   -0.08128   12.57458   13.47223
     256      444        3    -0.18371   11.60815   12.58488   13.43911
     257      444        4    -0.30096    8.86227    9.20578   17.05251
     258      444        4    -0.30096   20.73037    9.22636   17.13077
     259      444        4    -0.30096    9.79737    5.27114    0.30713
     260      444        4    -0.30096   21.65740    5.36786    0.31236
     261      444        4    -0.30096    2.46577   12.50673    8.46420
     262      444        4    -0.30096   14.32178   12.50193    8.42759
     263      444        4    -0.30096    1.87801    1.99563    9.00961
     264      444        4    -0.30096   13.73708    1.96195    8.97684
     265      444        4    -0.30096    2.69423    5.24010    0.31288
     266      444        4    -0.30096   14.56526    5.30716    0.33031
     267      444        4    -0.30096    1.76965    8.98630   17.17958
     268      444        4    -0.30096   13.63767    9.05748   17.18672
     269      444        4    -0.30096    8.97826    1.96202    8.99497
     270      444        4    -0.30096   20.83991    1.90821    8.98032
     271      444        4    -0.30096    9.56730   12.43874    8.45165
     272      444        4    -0.30096   21.42053   12.41495    8.41801
     273      444        4    -0.72540   22.86712    9.27769   11.06156
     274      444        4    -0.72540   11.00088    9.28432   11.06992
     275      444        4    -0.72540    0.41163    5.12473    6.39377
     276      444        4    -0.72540   12.27061    5.13286    6.38314
     277      444        4    -0.72540   23.47942   12.35902    2.35350
     278      444        4    -0.72540   11.57060   12.37216    2.38122
     279      444        4    -0.72540   -0.13917    2.03594   15.08039
     280      444        4    -0.72540   10.37280    2.07630   14.96831
     281      444        5    -0.61827   22.94791    7.20550   15.85850
     282      444        5    -0.61827   11.11774    7.19847   15.86251
     283      444        5    -0.61827   -0.66260    5.02403   15.40774
     284      444        5    -0.61827   11.23180    5.01994   15.40390
     285      444        5    -0.61827   23.07512    3.23025   10.96499
     286      444        5    -0.61827   11.30128    3.24002   10.96569
     287      444        5    -0.61694   23.17820    4.53161    9.14435
     288      444        5    -0.61694   11.35154    4.53955    9.14226
     289      444        5    -0.61827    0.33245    7.19228    1.60537
     290      444        5    -0.61827   12.14869    7.20314    1.58602
     291      444        5    -0.61827    0.39982    9.37800    2.04498
     292      444        5    -0.61827   12.27603    9.38373    2.03452
     293      444        5    -0.61827    0.25432   11.17196    6.49993
     294      444        5    -0.61827   12.08404   11.17957    6.49470
     295      444        5    -0.61694    0.09370    9.86522    8.31168
     296      444        5    -0.61694   11.92680    9.86772    8.30384
     297      444        5    -0.61827   23.11412    0.04280    7.13964
     298      444        5    -0.61827   11.28415    0.07700    7.15254
     299      444        5    -0.61827   23.28672    2.21837    6.68278
     300      444        5    -0.61827   11.40539    2.25096    6.67772
     301      444        5    -0.61827    0.21584    3.93556    2.22957
     302      444        5    -0.61827   12.21261    3.91057    2.21667
     303      444        5    -0.61694   23.67998    2.64831    0.41311
     304      444        5    -0.61694   11.79608    2.64732    0.41485
     305      444        5    -0.61827    0.16317   14.35991   10.29234
     306      444        5    -0.61827   11.87629   14.36567   10.27769
     307      444        5    -0.61827    0.04423   12.18172   10.75199
     308      444        5    -0.61827   11.98730   12.19088   10.75599
     309      444        5    -0.61827   -0.35917   10.42989   15.21408
     310      444        5    -0.61827   11.52838   10.43958   15.21217
     311      444        5    -0.61694   -0.35524   11.75205   17.02096
     312      444        5    -0.61694   11.07062   11.75127   16.96797
     313      444        1     0.95923   -1.64691    9.29190   34.60144
     314      444        1     0.95923   10.20057    9.28588   34.59046
     315      444        1     0.95923   -0.72267    5.24831   17.72045
     316      444        1     0.95923   11.14090    5.24155   17.71313
     317      444        1     0.95923   -0.96000   12.48020   25.87438
     318      444        1     0.95923   10.90032   12.49003   25.86793
     319      444        1     0.95923   22.17891    2.06580   26.42973
     320      444        1     0.95923   10.31459    2.07685   26.42694
     321      444        2     0.10175    7.75058    7.91273   32.93018
     322      444        2     0.10175   19.61843    8.07661   32.89218
     323      444        2     0.10175    6.26166   10.64427   18.63940
     324      444        2     0.10175   18.12798   10.50077   18.85293
     325      444        2     0.10175    8.74938   10.60199   18.58641
     326      444        2     0.10175   20.62188   10.46912   18.79087
     327      444        2     0.10175    5.25734    7.80549   32.86307
     328      444        2     0.10175   17.12022    7.98418   32.81444
     329      444        2     0.10175    8.66736    6.70836   19.28364
     330      444        2     0.10175   20.55008    6.62051   19.43529
     331      444        2     0.10175    5.13523    3.87873   33.63194
     332      444        2     0.10175   16.97070    4.18856   33.48448
     333      444        2     0.10175    7.61685    3.99738   33.64484
     334      444        2     0.10175   19.46813    4.28718   33.50173
     335      444        2     0.10175    6.17422    6.74925   19.38021
     336      444        2     0.10175   18.05064    6.66068   19.55539
     337      444        2     0.10175    1.50923   13.25601   23.94184
     338      444        2     0.10175   13.36229   13.25735   23.90732
     339      444        2     0.10175    4.00819   11.77336   27.90210
     340      444        2     0.10175   15.86383   11.73461   27.85068
     341      444        2     0.10175    1.51376   11.85763   27.83290
     342      444        2     0.10175   13.36720   11.84456   27.79142
     343      444        2     0.10175    3.99718   13.19870   23.81511
     344      444        2     0.10175   15.84921   13.17572   23.76927
     345      444        2     0.10175    0.93498    0.62278   27.91866
     346      444        2     0.10175   12.78773    0.58093   27.89269
     347      444        2     0.10175    3.39901    3.67395   24.96938
     348      444        2     0.10175   15.26763    3.62990   24.95613
     349      444        2     0.10175    0.92295    3.54052   24.97687
     350      444        2     0.10175   12.79001    3.51305   24.96432
     351      444        2     0.10175    3.42576    0.57128   27.98856
     352      444        2     0.10175   15.27686    0.51403   27.96084
     353      444        2     0.10175    1.72272    5.81439   19.75026
     354      444        2     0.10175   13.58185    5.40114   19.82975
     355      444        2     0.10175    3.21187    4.83900   33.10483
     356      444        2     0.10175   15.09475    5.44169   33.06596
     357      444        2     0.10175    0.71927    4.84168   33.17787
     358      444        2     0.10175   12.60084    5.38691   33.12715
     359      444        2     0.10175    4.21258    5.79597   19.87873
     360      444        2     0.10175   16.08024    5.41856   19.95978
     361      444        2     0.10175    0.76805    8.66328   32.57808
     362      444        2     0.10175   12.65055    9.13794   32.54984
     363      444        2     0.10175    4.39966    9.52102   19.21636
     364      444        2     0.10175   16.25621    9.15802   19.30839
     365      444        2     0.10175    1.90509    9.42245   19.19736
     366      444        2     0.10175   13.75942    9.09823   19.25227
     367      444        2     0.10175    3.25564    8.76162   32.40115
     368      444        2     0.10175   15.14809    9.20803   32.41510
     369      444        2     0.10175    7.85273    1.31463   28.36785
     370      444        2     0.10175   19.71434    1.28229   28.36018
     371      444        2     0.10175    5.34917    2.84661   24.43025
     372      444        2     0.10175   17.21264    2.77916   24.40654
     373      444        2     0.10175    7.84267    2.76887   24.49613