Created on Tue Feb 06 14:53:05 2018 

        1616 atoms
        1856 bonds
        3216 angles
        4096 dihedrals
        2592 impropers

           5 atom types
           7 bond types
          12 angle types
           3 dihedral types
           1 improper types
           0.000000  29.424000 xlo xhi
           0.000000  36.259988 ylo yhi
           0.000000  25.119958 zlo zhi
          -0.029744  -0.042527   0.016625 xy xz yz

Masses

    1    65.380000000 # Zn3+2
    2     1.007940000 # H_
    3    12.010700000 # C_R
    4    14.006700000 # N_R
    5    15.999400000 # O_R

Bond Coeffs

    1      160.291409        1.840266  # Zn3+2 O_R
    2      165.837318        1.881712  # Zn3+2 N_R
    3      357.440381        1.081418  # H_ C_R
    4      462.655054        1.379256  # C_R C_R
    5      663.718927        1.345073  # C_R N_R
    6      391.669513        1.458000  # C_R C_R
    7      646.680887        1.311940  # C_R O_R

Angle Coeffs

    1                      fourier       50.968023        0.343737        0.374972        0.281246 # O_R Zn3+2 O_R
    2                      fourier       53.299639        0.343737        0.374972        0.281246 # O_R Zn3+2 N_R
    3              cosine/periodic       76.817955              -1               3 # H_ C_R C_R
    4              cosine/periodic      109.704024              -1               3 # H_ C_R N_R
    5              cosine/periodic      165.695700              -1               3 # C_R C_R N_R
    6              cosine/periodic      117.010657              -1               3 # C_R C_R C_R
    7              cosine/periodic      101.626578              -1               3 # C_R C_R C_R
    8              cosine/periodic      217.450257              -1               3 # O_R C_R O_R
    9              cosine/periodic      137.761490              -1               3 # C_R C_R O_R
   10              cosine/periodic       36.261492              -1               3 # Zn3+2 N_R C_R
   11              cosine/periodic      132.654363              -1               3 # C_R N_R C_R
   12              cosine/periodic       50.430477              -1               3 # Zn3+2 O_R C_R

Dihedral Coeffs

    1        1.497136              -1               2 # H_ C_R C_R H_
    2        0.555556              -1               2 # C_R C_R C_R C_R
    3        2.245703              -1               2 # C_R C_R O_R Zn3+2

Improper Coeffs

    1        2.000000        1.000000       -1.000000        0.000000               0 # N_R C_R H_ C_R

Pair Coeffs

    1        0.124000        2.461553 # Zn3+2 Zn3+2
    2        0.044000        2.571134 # H_ H_
    3        0.105000        3.430851 # C_R C_R
    4        0.069000        3.260689 # N_R N_R
    5        0.060000        3.118146 # O_R O_R

Atoms

       1      444        1     0.94090    7.83734    1.19890   21.40020
       2      444        1     1.13934    7.37724    4.65633   21.39241
       3      444        1     0.94090    6.84777    8.12485   21.39668
       4      444        1     0.94090    0.49843    7.88612    8.83971
       5      444        1     1.13934    0.04193    4.42835    8.83243
       6      444        1     0.94090   14.22697    0.96065    8.83720
       7      444        1     0.94090   14.15614   10.25986   16.28050
       8      444        1     1.13934   14.61266   13.71765   16.28753
       9      444        1     0.94090    0.42761   17.18532   16.28276
      10      444        1     0.94090    6.81723   16.94712    3.71976
      11      444        1     1.13934    7.27734   13.48970    3.72780
      12      444        1     0.94090    7.80680   10.02119    3.72328
      13      444        2     0.10836    7.07965   17.20523   23.33544
      14      444        2     0.10836    6.78408   14.72515   23.40351
      15      444        2     0.10836    8.04191   14.62551   19.26424
      16      444        2     0.10836    8.31467   17.10173   19.38457
      17      444        2     0.10836    7.78549   10.23914   23.24978
      18      444        2     0.10836    8.09232   12.72208   23.30127
      19      444        2     0.10836    6.26371   12.86491   19.38331
      20      444        2     0.10836    6.04761   10.38208   19.49635
      21      444        2     0.10836   12.09737    1.65741   20.41725
      22      444        2     0.10836   14.40796    2.52606   20.20449
      23      444        2     0.10836   13.19362    6.17566   22.16409
      24      444        2     0.10836   10.87610    5.30662   22.31305
      25      444        2     0.10836    0.09586    7.02250   20.99878
      26      444        2     0.10836    2.40860    7.87275   21.03093
      27      444        2     0.10836    3.91662    3.85231   21.13242
      28      444        2     0.10836    1.59385    2.97951   21.21355
      29      444        2     0.10836    5.58152    0.33353   24.89463
      30      444        2     0.10836    4.32586    0.31121    1.88048
      31      444        2     0.10836    3.79014    4.57626    1.54890
      32      444        2     0.10836    5.03974    4.57464   24.53039
      33      444        2     0.10836    2.30250    0.50511    2.77475
      34      444        2     0.10836    1.10499    0.42839    4.94738
      35      444        2     0.10836    2.74184    4.24118    6.02377
      36      444        2     0.10836    3.96041    4.33875    3.85215
      37      444        2     0.10836    4.88499    0.69173   18.45815
      38      444        2     0.10836    3.44904    0.66063   16.44528
      39      444        2     0.10836    5.03322    4.50975   15.28977
      40      444        2     0.10836    6.40764    4.54709   17.36065
      41      444        2     0.10836    3.28306    0.35786   14.39248
      42      444        2     0.10836    1.83578    0.24348   12.39921
      43      444        2     0.10836    1.67497    4.52488   12.21634
      44      444        2     0.10836    3.11544    4.66955   14.24754
      45      444        2     0.10836   14.46411   10.00831   10.77345
      46      444        2     0.10836   14.16241   12.48745   10.84253
      47      444        2     0.10836    0.71013   12.59148    6.70376
      48      444        2     0.10836    0.98910   10.11608    6.82333
      49      444        2     0.10836    0.44274   16.97666   10.68854
      50      444        2     0.10836    0.75498   14.49457   10.74129
      51      444        2     0.10836   13.63789   14.34810    6.82308
      52      444        2     0.10836   13.41624   16.83031    6.93637
      53      444        2     0.10836    4.76153    7.42702    7.85551
      54      444        2     0.10836    7.07162    6.55726    7.64375
      55      444        2     0.10836    5.85561    2.90982    9.60612
      56      444        2     0.10836    3.53883    3.78007    9.75408
      57      444        2     0.10836    7.47038    2.06106    8.44282
      58      444        2     0.10836    9.78283    1.21015    8.47497
      59      444        2     0.10836   11.29183    5.23030    8.57168
      60      444        2     0.10836    8.96954    6.10384    8.65232
      61      444        2     0.10836   12.95357    8.75479   12.32938
      62      444        2     0.10836   11.65540    8.76500   14.43518
      63      444        2     0.10836   11.12072    4.49918   14.11290
      64      444        2     0.10836   12.41272    4.51279   11.97393
      65      444        2     0.10836    9.63323    8.57318   15.33071
      66      444        2     0.10836    8.43724    8.65475   17.50384
      67      444        2     0.10836   10.07390    4.84396   18.58751
      68      444        2     0.10836   11.29114    4.74141   16.41514
      69      444        2     0.10836   12.25471    8.38783    5.89817
      70      444        2     0.10836   10.81783    8.41594    3.88681
      71      444        2     0.10836   12.41051    4.57075    2.73004
      72      444        2     0.10836   13.78524    4.53584    4.80068
      73      444        2     0.10836   10.65031    8.71848    1.83401
      74      444        2     0.10836    9.16076    8.84579   24.96070
      75      444        2     0.10836    9.01072    4.56405   24.77732
      76      444        2     0.10836   10.49357    4.40636    1.68856
      77      444        2     0.10836    0.19033    8.13761   14.34651
      78      444        2     0.10836    0.49199    5.65845   14.27567
      79      444        2     0.10836   13.94459    5.55449   18.41620
      80      444        2     0.10836   13.66566    8.02988   18.29662
      81      444        2     0.10836   14.21172    1.16925   14.43041
      82      444        2     0.10836   13.89948    3.65134   14.37892
      83      444        2     0.10836    1.01671    3.79783   18.29688
      84      444        2     0.10836    1.23834    1.31562   18.18358
      85      444        2     0.10836    9.89306   10.71889   17.26445
      86      444        2     0.10836    7.58297   11.58864   17.47621
      87      444        2     0.10836    8.79896   15.23613   15.51384
      88      444        2     0.10836   11.11576   14.36590   15.36563
      89      444        2     0.10836    7.18422   16.08485   16.67739
      90      444        2     0.10836    4.87177   16.93580   16.64524
      91      444        2     0.10836    3.36274   12.91565   16.54828
      92      444        2     0.10836    5.68503   12.04209   16.46764
      93      444        2     0.10836    1.70095    9.39121   12.78857
      94      444        2     0.10836    2.99910    9.38099   10.68477
      95      444        2     0.10836    3.53379   13.64681   11.00706
      96      444        2     0.10836    2.24182   13.63321   13.14603
      97      444        2     0.10836    5.02121    9.57275    9.78925
      98      444        2     0.10836    6.21721    9.49118    7.61612
      99      444        2     0.10836    4.58068   13.30204    6.53245
     100      444        2     0.10836    3.36343   13.40459    8.70482
     101      444        2     0.10836    2.39989    9.75815   19.22079
     102      444        2     0.10836    3.83681    9.73008   21.23315
     103      444        2     0.10836    2.24414   13.57529   22.38992
     104      444        2     0.10836    0.86939   13.61018   20.31928
     105      444        2     0.10836    4.00434    9.42756   23.28595
     106      444        2     0.10836    5.49387    9.30025    0.15926
     107      444        2     0.10836    5.64390   13.58197    0.34264
     108      444        2     0.10836    4.16107   13.73968   23.43139
     109      444        2     0.10836    7.57495    0.94079    1.78477
     110      444        2     0.10836    7.87055    3.42087    1.71645
     111      444        2     0.10836    6.61280    3.52053    5.85571
     112      444        2     0.10836    6.34002    1.04431    5.73564
     113      444        2     0.10836    6.86914    7.90686    1.87018
     114      444        2     0.10836    6.56232    5.42392    1.81843
     115      444        2     0.10836    8.39100    5.28113    5.73489
     116      444        2     0.10836    8.60707    7.76396    5.62185
     117      444        2     0.10836    2.55722   16.48866    4.70271
     118      444        2     0.10836    0.24663   15.62003    4.91547
     119      444        2     0.10836    1.46094   11.97035    2.95612
     120      444        2     0.10836    3.77847   12.83934    2.80716
     121      444        2     0.10836   14.55873   11.12356    4.12143
     122      444        2     0.10836   12.24596   10.27331    4.08928
     123      444        2     0.10836   10.73794   14.29375    3.98754
     124      444        2     0.10836   13.06071   15.16653    3.90640
     125      444        2     0.10836    9.07309   17.81247    0.22533
     126      444        2     0.10836   10.32872   17.83477   23.23948
     127      444        2     0.10836   10.86449   13.56975   23.57106
     128      444        2     0.10836    9.61489   13.57138    0.58957
     129      444        2     0.10836   12.35206   17.64088   22.34521
     130      444        2     0.10836   13.54960   17.71751   20.17258
     131      444        2     0.10836   11.91276   13.90464   19.09619
     132      444        2     0.10836   10.69419   13.80716   21.26781
     133      444        2     0.10836    9.76960   17.45426    6.66181
     134      444        2     0.10836   11.20553   17.48532    8.67468
     135      444        2     0.10836    9.62119   13.63629    9.83044
     136      444        2     0.10836    8.24680   13.59895    7.75956
     137      444        2     0.10836   11.37147   17.78811   10.72622
     138      444        2     0.10836   12.81878   17.90249   12.72100
     139      444        2     0.10836   12.97956   13.62108   12.90161
     140      444        2     0.10836   11.53905   13.47644   10.87267
     141      444        3     0.17604    7.28688   16.58746   22.46428
     142      444        3    -0.10595    7.12253   15.21116   22.49015
     143      444        3    -0.02613    7.37915   14.46691   21.33036
     144      444        3    -0.10595    7.80654   15.15635   20.18590
     145      444        3     0.17604    7.96913   16.53412   20.24819
     146      444        3     0.17604    7.46656   10.86729   22.42057
     147      444        3    -0.10595    7.63050   12.24371   22.43916
     148      444        3    -0.02613    7.21556   13.00062   21.33413
     149      444        3    -0.10595    6.63558   12.32293   20.25246
     150      444        3     0.17604    6.50047   10.94208   20.31401
     151      444        3     0.69551    9.95828    2.90337   21.55544
     152      444        3    -0.02613   11.34741    3.42283   21.39291
     153      444        3    -0.10595   12.35085    2.64754   20.79380
     154      444        3    -0.10595   13.64681    3.14109   20.68352
     155      444        3    -0.02613   13.98488    4.42023   21.17085
     156      444        3    -0.10595   12.96026    5.19397   21.75137
     157      444        3    -0.10595   11.66289    4.70769   21.85813
     158      444        3    -0.02613    0.65975    4.93149   21.10353
     159      444        3    -0.10595    0.92356    6.31470   21.04550
     160      444        3    -0.10595    2.22722    6.79995   21.05178
     161      444        3    -0.02613    3.31363    5.91477   21.07238
     162      444        3    -0.10595    3.06744    4.53346   21.09574
     163      444        3    -0.10595    1.76224    4.05327   21.12639
     164      444        3     0.69551    4.72742    6.40171   21.07992
     165      444        3     0.69551    6.19445    2.45642   23.31660
     166      444        3    -0.02613    5.39604    2.45744   24.58239
     167      444        3    -0.10595    5.20598    1.24631    0.15876
     168      444        3    -0.10595    4.47005    1.24551    1.33739
     169      444        3    -0.02613    3.96556    2.44476    1.87395
     170      444        3    -0.10595    4.20130    3.64037    1.16808
     171      444        3    -0.10595    4.87192    3.65484   25.09157
     172      444        3    -0.02613    3.22487    2.42668    3.15255
     173      444        3    -0.10595    2.41476    1.32429    3.48464
     174      444        3    -0.10595    1.74008    1.27645    4.69718
     175      444        3    -0.02613    1.85900    2.32324    5.62260
     176      444        3    -0.10595    2.65607    3.43129    5.30031
     177      444        3    -0.10595    3.32438    3.48241    4.07948
     178      444        3     0.69551    1.14608    2.25095    6.93311
     179      444        3     0.69551    6.61039    2.59907   19.24390
     180      444        3    -0.02613    5.74058    2.61622   18.02910
     181      444        3    -0.10595    4.90132    1.52592   17.75805
     182      444        3    -0.10595    4.10476    1.51238   16.62188
     183      444        3    -0.02613    4.13399    2.58192   15.70500
     184      444        3    -0.10595    4.97110    3.67808   15.99187
     185      444        3    -0.10595    5.75682    3.70096   17.14186
     186      444        3    -0.02613    3.30396    2.52579   14.48367
     187      444        3    -0.10595    2.93240    1.28184   13.93429
     188      444        3    -0.10595    2.11930    1.21068   12.81068
     189      444        3    -0.02613    1.64424    2.37866   12.19825
     190      444        3    -0.10595    2.02840    3.62388   12.71849
     191      444        3    -0.10595    2.84686    3.69385   13.84160
     192      444        3     0.69551    0.73866    2.31052   11.01309
     193      444        3     0.17604   14.67069   10.62683    9.90279
     194      444        3    -0.10595   14.50232   12.00272    9.92891
     195      444        3    -0.02613    0.04602   12.74807    8.76963
     196      444        3    -0.10595    0.47542   12.05982    7.62516
     197      444        3     0.17604    0.64177   10.68242    7.68721
     198      444        3     0.17604    0.12488   16.34803    9.86059
     199      444        3    -0.10595    0.29216   14.97196    9.87867
     200      444        3    -0.02613   14.59047   14.21408    8.77365
     201      444        3    -0.10595   14.00893   14.89078    7.69223
     202      444        3     0.17604   13.87041   16.27134    7.75428
     203      444        3     0.69551    2.62116    6.18264    8.99521
     204      444        3    -0.02613    4.01051    5.66298    8.83268
     205      444        3    -0.10595    5.01442    6.43715    8.23307
     206      444        3    -0.10595    6.31026    5.94289    8.12329
     207      444        3    -0.02613    6.64799    4.66402    8.61162
     208      444        3    -0.10595    5.62289    3.89134    9.19390
     209      444        3    -0.10595    4.32574    4.37840    9.29891
     210      444        3    -0.02613    8.03458    4.15209    8.54455
     211      444        3    -0.10595    8.29826    2.76876    8.49055
     212      444        3    -0.10595    9.60188    2.28306    8.49482
     213      444        3    -0.02613   10.68864    3.16790    8.51391
     214      444        3    -0.10595   10.44252    4.54928    8.53576
     215      444        3    -0.10595    9.13746    5.02991    8.56641
     216      444        3     0.69551   12.10286    2.68143    8.52119
     217      444        3     0.69551   13.56799    6.62952   10.75612
     218      444        3    -0.02613   12.76870    6.63024   12.02141
     219      444        3    -0.10595   12.53583    7.82632   12.71547
     220      444        3    -0.10595   11.79986    7.82957   13.89410
     221      444        3    -0.02613   11.29569    6.63137   14.43418
     222      444        3    -0.10595   11.53169    5.43432   13.72806
     223      444        3    -0.10595   12.24476    5.43380   12.53310
     224      444        3    -0.02613   10.55543    6.65212   15.71228
     225      444        3    -0.10595    9.74576    7.75542   16.04236
     226      444        3    -0.10595    9.07196    7.80601   17.25490
     227      444        3    -0.02613    9.19167    6.76129   18.18258
     228      444        3    -0.10595    9.98794    5.65222   17.86029
     229      444        3    -0.10595   10.65539    5.59833   16.64147
     230      444        3     0.69551    8.48044    6.83638   19.49560
     231      444        3     0.69551   13.98405    6.48392    6.68191
     232      444        3    -0.02613   13.11421    6.46524    5.46962
     233      444        3    -0.10595   12.27242    7.55371    5.19908
     234      444        3    -0.10595   11.47562    7.56572    4.06290
     235      444        3    -0.02613   11.50703    6.49635    3.14602
     236      444        3    -0.10595   12.34669    5.40204    3.43239
     237      444        3    -0.10595   13.13247    5.38055    4.58238
     238      444        3    -0.02613   10.67671    6.55057    1.92469
     239      444        3    -0.10595   10.30202    7.79364    1.37557
     240      444        3    -0.10595    9.48920    7.86282    0.25195
     241      444        3    -0.02613    8.97481    6.71018   24.75974
     242      444        3    -0.10595    9.40436    5.44940    0.15926
     243      444        3    -0.10595   10.22258    5.38140    1.28263
     244      444        3     0.69551    8.07010    6.77644   23.57383
     245      444        3     0.17604   -0.03192    7.51910   15.21717
     246      444        3    -0.10595    0.15215    6.14320   15.19104
     247      444        3    -0.02613   14.60853    5.39786   16.35033
     248      444        3    -0.10595   14.17922    6.08614   17.49480
     249      444        3     0.17604   14.01291    7.46355   17.43300
     250      444        3     0.17604   14.52961    1.79788   15.25962
     251      444        3    -0.10595   14.36232    3.17395   15.24128
     252      444        3    -0.02613    0.06406    3.93185   16.34631
     253      444        3    -0.10595    0.64563    3.25515   17.42772
     254      444        3     0.17604    0.78413    1.87459   17.36593
     255      444        3     0.69551   12.03342   11.96332   16.12450
     256      444        3    -0.02613   10.64406   12.48295   16.28728
     257      444        3    -0.10595    9.64016   11.70876   16.88689
     258      444        3    -0.10595    8.34431   12.20302   16.99616
     259      444        3    -0.02613    8.00658   13.48191   16.50859
     260      444        3    -0.10595    9.03168   14.25461   15.92630
     261      444        3    -0.10595   10.32883   13.76756   15.82105
     262      444        3    -0.02613    6.62000   13.99382   16.57540
     263      444        3    -0.10595    6.35633   15.37717   16.62966
     264      444        3    -0.10595    5.05272   15.86287   16.62439
     265      444        3    -0.02613    3.96595   14.97804   16.60605
     266      444        3    -0.10595    4.21205   13.59667   16.58369
     267      444        3    -0.10595    5.51711   13.11602   16.55355
     268      444        3     0.69551    2.55173   15.46452   16.59877
     269      444        3     0.69551    1.08658   11.51647   14.36384
     270      444        3    -0.02613    1.88583   11.51576   13.09855
     271      444        3    -0.10595    2.11870   10.31968   12.40449
     272      444        3    -0.10595    2.85467   10.31640   11.20350
     273      444        3    -0.02613    3.35882   11.51461   10.67598
     274      444        3    -0.10595    3.12283   12.71166   11.39014
     275      444        3    -0.10595    2.40979   12.71218   12.58510
     276      444        3    -0.02613    4.09909   11.49386    9.40768
     277      444        3    -0.10595    4.90871   10.39054    9.07760
     278      444        3    -0.10595    5.58251   10.33994    7.86506
     279      444        3    -0.02613    5.46286   11.38468    6.93738
     280      444        3    -0.10595    4.66661   12.49376    7.25791
     281      444        3    -0.10595    3.99915   12.54767    8.47874
     282      444        3     0.69551    6.17410   11.30959    5.62436
     283      444        3     0.69551    0.67056   11.66206   18.43579
     284      444        3    -0.02613    1.54041   11.68076   19.65034
     285      444        3    -0.10595    2.38222   10.59231   19.92088
     286      444        3    -0.10595    3.17902   10.58030   21.05706
     287      444        3    -0.02613    3.14761   11.64967   21.97393
     288      444        3    -0.10595    2.30795   12.74398   21.68757
     289      444        3    -0.10595    1.52219   12.76547   20.53758
     290      444        3    -0.02613    3.97795   11.59547   23.19527
     291      444        3    -0.10595    4.35262   10.35240   23.74439
     292      444        3    -0.10595    5.16540   10.28320   24.86801
     293      444        3    -0.02613    5.67979   11.43584    0.35922
     294      444        3    -0.10595    5.25022   12.69662   24.96070
     295      444        3    -0.10595    4.43206   12.76464   23.83733
     296      444        3     0.69551    6.58446   11.36958    1.54613
     297      444        3     0.17604    7.36773    1.55856    2.65568
     298      444        3    -0.10595    7.53211    2.93487    2.62981
     299      444        3    -0.02613    7.27551    3.67911    3.78960
     300      444        3    -0.10595    6.84817    2.98967    4.93406
     301      444        3     0.17604    6.68553    1.61190    4.87202
     302      444        3     0.17604    7.18809    7.27871    2.69939
     303      444        3    -0.10595    7.02415    5.90231    2.68080
     304      444        3    -0.02613    7.43912    5.14540    3.78558
     305      444        3    -0.10595    8.01909    5.82309    4.86749
     306      444        3     0.17604    8.15419    7.20396    4.80595
     307      444        3     0.69551    4.69629   15.24267    3.56452
     308      444        3    -0.02613    3.30712   14.72326    3.72705
     309      444        3    -0.10595    2.30373   15.49850    4.32616
     310      444        3    -0.10595    1.00774   15.00498    4.43644
     311      444        3    -0.02613    0.66970   13.72580    3.94936
     312      444        3    -0.10595    1.69431   12.95207    3.36758
     313      444        3    -0.10595    2.99169   13.43830    3.26208
     314      444        3    -0.02613   13.99479   13.21458    4.01668
     315      444        3    -0.10595   13.73105   11.83137    4.07245
     316      444        3    -0.10595   12.42738   11.34609    4.06818
     317      444        3    -0.02613   11.34096   12.23123    4.04783
     318      444        3    -0.10595   11.58708   13.61254    4.02371
     319      444        3    -0.10595   12.89227   14.09277    3.99357
     320      444        3     0.69551    9.92713   11.74433    4.04004
     321      444        3     0.69551    8.46012   15.68962    1.80361
     322      444        3    -0.02613    9.25855   15.68858    0.53757
     323      444        3    -0.10595    9.44861   16.89970   24.95919
     324      444        3    -0.10595   10.18456   16.90047   23.78106
     325      444        3    -0.02613   10.68904   15.70120   23.24526
     326      444        3    -0.10595   10.45330   14.50563   23.95188
     327      444        3    -0.10595    9.78267   14.49116    0.02864
     328      444        3    -0.02613   11.42970   15.71927   21.96715
     329      444        3    -0.10595   12.23981   16.82164   21.63532
     330      444        3    -0.10595   12.91449   16.86944   20.42278
     331      444        3    -0.02613   12.79560   15.82260   19.49736
     332      444        3    -0.10595   11.99853   14.71457   19.81965
     333      444        3    -0.10595   11.33021   14.66349   21.04023
     334      444        3     0.69551   13.50851   15.89489   18.18509
     335      444        3     0.69551    8.04419   15.54695    5.87606
     336      444        3    -0.02613    8.91393   15.52981    7.09086
     337      444        3    -0.10595    9.75326   16.62005    7.36015
     338      444        3    -0.10595   10.54978   16.63358    8.49833
     339      444        3    -0.02613   10.52051   15.56407    9.41521
     340      444        3    -0.10595    9.68335   14.46792    9.12809
     341      444        3    -0.10595    8.89768   14.44504    7.97810
     342      444        3    -0.02613   11.35054   15.62017   10.63654
     343      444        3    -0.10595   11.72214   16.86412   11.17838
     344      444        3    -0.10595   12.53519   16.93529   12.30928
     345      444        3    -0.02613   13.01030   15.76732   12.92171
     346      444        3    -0.10595   12.62611   14.52207   12.38414
     347      444        3    -0.10595   11.80766   14.45212   11.27861
     348      444        3     0.69551   13.91588   15.83544   14.10687
     349      444        4    -0.33571    7.71261   17.24530   21.36528
     350      444        4    -0.33571    6.90974   10.21798   21.37583
     351      444        4    -0.33571    0.38661    9.97016    8.80404
     352      444        4    -0.33571   14.27819   16.99641    8.81610
     353      444        4    -0.33571   14.26799    8.17579   16.31592
     354      444        4    -0.33571    0.37632    1.14950   16.30411
     355      444        4    -0.33571    6.94200    0.90074    3.75468
     356      444        4    -0.33571    7.74490    7.92804    3.74413
     357      444        5    -0.61352    9.72860    1.69657   21.15477
     358      444        5    -0.61352    9.08805    3.63948   22.10079
     359      444        5    -0.61352    4.93334    7.62380   21.45872
     360      444        5    -0.61352    5.63419    5.61411   20.70739
     361      444        5    -0.61352    6.97105    1.43802   23.15156
     362      444        5    -0.61352    6.05144    3.41081   22.50522
     363      444        5    -0.61352    0.36179    1.23857    7.09061
     364      444        5    -0.61352    1.36373    3.14026    7.80502
     365      444        5    -0.61352    6.63404    1.48058   19.88471
     366      444        5    -0.61352    7.26586    3.63211   19.55463
     367      444        5    -0.61352    0.60980    1.15120   10.46121
     368      444        5    -0.61352    0.14405    3.35868   10.64333
     369      444        5    -0.61352    2.39040    7.38896    8.59379
     370      444        5    -0.61352    1.75143    5.44644    9.54056
     371      444        5    -0.61352   12.30979    1.45917    8.89900
     372      444        5    -0.61352   13.00885    3.47023    8.14917
     373      444        5    -0.61352   14.34407    7.64837   10.59083
     374      444        5    -0.61352   13.42644    5.67429    9.94575
     375      444        5    -0.61352    7.69912    7.85091   19.65134
     376      444        5    -0.61352    8.69686    5.94732   20.36626
     377      444        5    -0.61352   14.00639    7.60266    7.32473