Created on Tue Feb 06 14:51:49 2018 

         960 atoms
        1120 bonds
        1984 angles
        2432 dihedrals
        1536 impropers

           6 atom types
          12 bond types
          24 angle types
           3 dihedral types
           1 improper types
           0.000000  27.608000 xlo xhi
           0.000000  27.679899 ylo yhi
           0.000000  26.366478 zlo zhi
          -0.074882   0.016523  -8.949688 xy xz yz

Masses

    1    65.380000000 # Zn4+2
    2     1.007940000 # H_
    3    12.010700000 # C_R
    4    14.006700000 # N_R
    5    15.999400000 # O_R
    6    15.999400000 # O_2

Bond Coeffs

    1      104.409475        2.122938  # Zn4+2 O_2
    2      101.478011        2.216443  # Zn4+2 N_R
    3      127.647979        1.985391  # Zn4+2 O_R
    4      132.439384        2.028187  # Zn4+2 N_R
    5      529.459447        1.043423  # H_ N_R
    6      357.440381        1.081418  # H_ C_R
    7      462.655054        1.379256  # C_R C_R
    8      561.491352        1.422196  # C_R N_R
    9      391.669513        1.458000  # C_R C_R
   10      663.718927        1.345073  # C_R N_R
   11      646.680887        1.311940  # C_R O_R
   12      714.557442        1.269010  # C_R O_2

Angle Coeffs

    1       43.207730               1               4 # O_2 Zn4+2 O_2
    2       42.809957               1               4 # N_R Zn4+2 O_2
    3       60.397389               1               4 # O_R Zn4+2 O_R
    4       63.300260               1               4 # O_R Zn4+2 N_R
    5      144.106216              -1               3 # N_R C_R C_R
    6      117.010657              -1               3 # C_R C_R C_R
    7       76.817955              -1               3 # C_R C_R H_
    8      101.626578              -1               3 # C_R C_R C_R
    9      143.630586              -1               3 # N_R C_R C_R
   10      225.881601              -1               3 # N_R C_R O_R
   11      137.761490              -1               3 # C_R C_R O_R
   12      165.695700              -1               3 # C_R C_R N_R
   13      109.704024              -1               3 # H_ C_R N_R
   14      256.805977              -1               3 # O_2 C_R O_2
   15      148.862838              -1               3 # O_2 C_R C_R
   16      217.450257              -1               3 # O_R C_R O_R
   17      115.144329              -1               3 # C_R N_R C_R
   18       75.860860              -1               3 # H_ N_R C_R
   19       89.115099              -1               3 # C_R N_R H_
   20       21.958282              -1               3 # C_R N_R Zn4+2
   21      132.654363              -1               3 # C_R N_R C_R
   22       28.941661              -1               3 # C_R N_R Zn4+2
   23       28.000941              -1               3 # Zn4+2 O_2 C_R
   24       39.831479              -1               3 # Zn4+2 O_R C_R

Dihedral Coeffs

    1        1.497136              -1               2 # N_R C_R C_R C_R
    2        0.555556              -1               2 # C_R C_R N_R C_R
    3        2.245703              -1               2 # O_2 C_R O_2 Zn4+2

Improper Coeffs

    1        2.000000        1.000000       -1.000000        0.000000               0 # N_R C_R C_R C_R

Pair Coeffs

    1        0.124000        2.461553 # Zn4+2 Zn4+2
    2        0.044000        2.571134 # H_ H_
    3        0.105000        3.430851 # C_R C_R
    4        0.069000        3.260689 # N_R N_R
    5        0.060000        3.118146 # O_R O_R
    6        0.060000        3.118146 # O_2 O_2

Atoms

       1      444        1     0.92703    0.77192    8.28656   12.69045
       2      444        1     0.92703    7.70398   -1.16498    7.07782
       3      444        1     0.92703   13.00246    1.07968    0.49173
       4      444        1     0.92703    6.07048   10.53098    6.10503
       5      444        2     0.30194   12.18143    7.38043    2.05527
       6      444        2     0.11949   12.65715    9.55365    1.48918
       7      444        2     0.11949   10.65564   -1.11189    3.53100
       8      444        2     0.11949    9.44421    8.63961    4.23129
       9      444        2     0.11949    0.19194    3.38336    2.04802
      10      444        2     0.11949   13.16816    5.55945    2.91877
      11      444        2     0.11949    9.21034    4.41872    1.59188
      12      444        2     0.11949   10.23398    2.28733    0.70913
      13      444        2     0.30194    5.31427    4.21488    4.53530
      14      444        2     0.11949    5.80705    2.03912    5.08636
      15      444        2     0.11949    3.70567   12.70575    3.06761
      16      444        2     0.11949    2.55235    2.95363    2.39434
      17      444        2     0.11949    7.08742    8.23662    4.55494
      18      444        2     0.11949    6.28243    6.04743    3.69592
      19      444        2     0.11949    2.31377    7.15414    5.02044
      20      444        2     0.11949    3.31674    9.30209    5.89146
      21      444        2     0.30194    1.59287    1.98554   11.12692
      22      444        2     0.11949    1.11713   -0.18785   11.69340
      23      444        2     0.11949    3.11873   10.47773    9.65158
      24      444        2     0.11949    4.33013    0.72623    8.95142
      25      444        2     0.11949   13.58242    5.98248   11.13496
      26      444        2     0.11949    0.60616    3.80636   10.26421
      27      444        2     0.11949    4.56404    4.94707   11.59097
      28      444        2     0.11949    3.54045    7.07849   12.47359
      29      444        2     0.30194    8.46014    5.15102    8.64741
      30      444        2     0.11949    7.96739    7.32673    8.09649
      31      444        2     0.11949   10.06875   -3.33990   10.11524
      32      444        2     0.11949   11.22189    6.41222   10.78864
      33      444        2     0.11949    6.68687    1.12938    8.62711
      34      444        2     0.11949    7.49172    3.31845    9.48666
      35      444        2     0.11949   11.46054    2.21178    8.16267
      36      444        2     0.11949   10.45768    0.06385    7.29139
      37      444        3     0.20678   11.08149    8.92576    2.85101
      38      444        3    -0.14115   11.88916    9.86446    2.19870
      39      444        3    -0.05801   11.71317   11.23163    2.42545
      40      444        3    -0.14115   10.74803   11.66466    3.34195
      41      444        3    -0.05801    9.93885   10.72617    3.98819
      42      444        3    -0.14115   10.08889    9.35730    3.73481
      43      444        3     0.51300   10.49926    6.47594    2.75965
      44      444        3     0.16042   12.94968    3.66845    1.94387
      45      444        3    -0.14115   12.47126    4.88368    2.42176
      46      444        3    -0.05801   11.10932    5.18324    2.28386
      47      444        3    -0.14115   10.27741    4.22569    1.69101
      48      444        3     0.16042   10.83346    3.04490    1.21457
      49      444        3     0.68178   12.53784   12.21050    1.63393
      50      444        3     0.68178    8.87426   11.16043    4.95373
      51      444        3     0.20678    4.20990    2.66709    3.74944
      52      444        3    -0.14115    5.02929    1.72901    4.38725
      53      444        3    -0.05801    4.85197    0.36240    4.15931
      54      444        3    -0.14115    3.87405   -0.07086    3.25639
      55      444        3    -0.05801    3.05421    0.86756    2.62307
      56      444        3    -0.14115    3.20572    2.23616    2.87764
      57      444        3     0.51300    3.61531    5.11072    3.85992
      58      444        3     0.16042    6.04454    7.94076    4.66014
      59      444        3    -0.14115    5.57826    6.71817    4.18950
      60      444        3    -0.05801    4.21918    6.40762    4.32938
      61      444        3    -0.14115    3.37846    7.35891    4.91998
      62      444        3     0.16042    3.92260    8.54771    5.38891
      63      444        3     0.68178    5.68678   -0.61500    4.94174
      64      444        3     0.68178    1.97962    0.43821    1.66517
      65      444        3     0.20678    2.69277    0.44007   10.33157
      66      444        3    -0.14115    1.88514   -0.49866   10.98401
      67      444        3    -0.05801    2.06118   -1.86581   10.75726
      68      444        3    -0.14115    3.02625   -2.29883    9.84063
      69      444        3    -0.05801    3.83542   -1.36032    9.19439
      70      444        3    -0.14115    3.68551    0.00889    9.44685
      71      444        3     0.51300    3.27512    2.88980   10.42333
      72      444        3     0.16042    0.82468    5.69740   11.23911
      73      444        3    -0.14115    1.30306    4.48219   10.76108
      74      444        3    -0.05801    2.66502    4.18257   10.89898
      75      444        3    -0.14115    3.49697    5.14006   11.49183
      76      444        3     0.16042    2.94095    6.32106   11.96774
      77      444        3     0.68178    1.23651   -2.84470   11.54878
      78      444        3     0.68178    4.90023   -1.79469    8.22924
      79      444        3     0.20678    9.56439    6.69876    9.43353
      80      444        3    -0.14115    8.74519    7.63685    8.79546
      81      444        3    -0.05801    8.92238    9.00354    9.02327
      82      444        3    -0.14115    9.90030    9.43699    9.92566
      83      444        3    -0.05801   10.72017    8.49831   10.55977
      84      444        3    -0.14115   10.56859    7.12970   10.30534
      85      444        3     0.51300   10.15872    4.25501    9.32358
      86      444        3     0.16042    7.72978    1.42508    8.52283
      87      444        3    -0.14115    8.19602    2.64809    8.99229
      88      444        3    -0.05801    9.55510    2.95854    8.85254
      89      444        3    -0.14115   10.39586    2.00688    8.26299
      90      444        3     0.16042    9.85175    0.81808    7.79406
      91      444        3     0.68178    8.08779    9.98085    8.24084
      92      444        3     0.68178   11.79464    8.92764   11.51780
      93      444        4    -0.41518   11.32932    7.55876    2.58497
      94      444        4    -0.28797   12.14962    2.77028    1.33493
      95      444        4    -0.41518    4.45605    4.03384    4.01680
      96      444        4    -0.28797    5.23582    8.83403    5.26407
      97      444        4    -0.41518    2.44496    1.80709   10.59761
      98      444        4    -0.28797    1.62480    6.59561   11.84791
      99      444        4    -0.41518    9.31831    5.33237    9.16499
     100      444        4    -0.28797    8.53846    0.53217    7.91799
     101      444        5    -0.49754    9.36123    6.51741    3.23649
     102      444        6    -0.59728   13.48354   11.72148    0.93838
     103      444        6    -0.59728   12.24274   -0.40227    1.70143
     104      444        5    -0.59728    9.12932   -1.63625    5.64823
     105      444        5    -0.59728    7.83623   10.42460    5.00080
     106      444        5    -0.49754    2.47000    5.09790    3.29581
     107      444        5    -0.59728    6.64465   -0.12734    5.62133
     108      444        5    -0.59728    5.31151   11.99857    4.88399
     109      444        6    -0.59728    2.15342   13.23655    0.96554
     110      444        6    -0.59728    0.94308    1.17600    1.62787
     111      444        5    -0.49754    4.41308    2.84832    9.94623
     112      444        6    -0.59728    0.29102   -2.35564   12.24459
     113      444        6    -0.59728    1.53154    9.76807   11.48115
     114      444        5    -0.59728    4.64522   11.00216    7.53422
     115      444        5    -0.59728    5.93808   -1.05856    8.18178
     116      444        5    -0.49754   11.30411    4.30362    9.78196
     117      444        5    -0.59728    7.12994    9.49321    7.56111
     118      444        5    -0.59728    8.46285   -2.63268    8.29885
     119      444        6    -0.59728   11.62106   -3.87040   12.21704
     120      444        6    -0.59728   12.83107    8.18970   11.55537
     121      444        1     0.92703    0.78018    3.81171   25.87369
     122      444        1     0.92703    7.71224   -5.63983   20.26106
     123      444        1     0.92703   13.01072   -3.39516   13.67497
     124      444        1     0.92703    6.07874    6.05614   19.28826
     125      444        2     0.30194   12.18969    2.90559   15.23851
     126      444        2     0.11949   12.66541    5.07880   14.67242
     127      444        2     0.11949   10.66390   -5.58673   16.71424
     128      444        2     0.11949    9.45247    4.16477   17.41453
     129      444        2     0.11949    0.20020   -1.09149   15.23125
     130      444        2     0.11949   13.17642    1.08461   16.10201
     131      444        2     0.11949    9.21860   -0.05612   14.77511
     132      444        2     0.11949   10.24224   -2.18751   13.89237
     133      444        2     0.30194    5.32253   -0.25996   17.71854
     134      444        2     0.11949    5.81531   -2.43573   18.26960
     135      444        2     0.11949    3.71393    8.23090   16.25085
     136      444        2     0.11949    2.56062   -1.52122   15.57758
     137      444        2     0.11949    7.09568    3.76178   17.73818
     138      444        2     0.11949    6.29069    1.57259   16.87916
     139      444        2     0.11949    2.32203    2.67929   18.20368
     140      444        2     0.11949    3.32500    4.82725   19.07470
     141      444        2     0.30194    1.60113   -2.48930   24.31016
     142      444        2     0.11949    1.12539   -4.66269   24.87664
     143      444        2     0.11949    3.12700    6.00289   22.83482
     144      444        2     0.11949    4.33839   -3.74862   22.13466
     145      444        2     0.11949   13.59068    1.50763   24.31820
     146      444        2     0.11949    0.61443   -0.66848   23.44744
     147      444        2     0.11949    4.57230    0.47222   24.77421
     148      444        2     0.11949    3.54872    2.60365   25.65682
     149      444        2     0.30194    8.46840    0.67618   21.83065
     150      444        2     0.11949    7.97566    2.85189   21.27972
     151      444        2     0.11949   10.07701   -7.81474   23.29847
     152      444        2     0.11949   11.23015    1.93737   23.97187
     153      444        2     0.11949    6.69513   -3.34546   21.81035
     154      444        2     0.11949    7.49999   -1.15640   22.66990
     155      444        2     0.11949   11.46880   -2.26307   21.34590
     156      444        2     0.11949   10.46594   -4.41099   20.47462
     157      444        3     0.20678   11.08975    4.45091   16.03425
     158      444        3    -0.14115   11.89742    5.38961   15.38194
     159      444        3    -0.05801   11.72143    6.75679   15.60869
     160      444        3    -0.14115   10.75630    7.18982   16.52519
     161      444        3    -0.05801    9.94711    6.25132   17.17143
     162      444        3    -0.14115   10.09715    4.88246   16.91805
     163      444        3     0.51300   10.50752    2.00110   15.94289
     164      444        3     0.16042   12.95795   -0.80640   15.12711
     165      444        3    -0.14115   12.47952    0.40884   15.60500
     166      444        3    -0.05801   11.11758    0.70839   15.46710
     167      444        3    -0.14115   10.28567   -0.24915   14.87425
     168      444        3     0.16042   10.84172   -1.42995   14.39781
     169      444        3     0.68178   12.54610    7.73565   14.81717
     170      444        3     0.68178    8.88252    6.68558   18.13697
     171      444        3     0.20678    4.21817   -1.80776   16.93268
     172      444        3    -0.14115    5.03755   -2.74584   17.57049
     173      444        3    -0.05801    4.86023   -4.11245   17.34255
     174      444        3    -0.14115    3.88231   -4.54571   16.43963
     175      444        3    -0.05801    3.06247   -3.60728   15.80631
     176      444        3    -0.14115    3.21398   -2.23868   16.06088
     177      444        3     0.51300    3.62357    0.63587   17.04316
     178      444        3     0.16042    6.05280    3.46592   17.84338
     179      444        3    -0.14115    5.58653    2.24332   17.37274
     180      444        3    -0.05801    4.22744    1.93278   17.51261
     181      444        3    -0.14115    3.38672    2.88406   18.10322
     182      444        3     0.16042    3.93086    4.07286   18.57215
     183      444        3     0.68178    5.69504   -5.08984   18.12498
     184      444        3     0.68178    1.98788   -4.03664   14.84841
     185      444        3     0.20678    2.70103   -4.03478   23.51481
     186      444        3    -0.14115    1.89340   -4.97350   24.16725
     187      444        3    -0.05801    2.06944   -6.34065   23.94050
     188      444        3    -0.14115    3.03451   -6.77368   23.02387
     189      444        3    -0.05801    3.84368   -5.83517   22.37763
     190      444        3    -0.14115    3.69377   -4.46595   22.63008
     191      444        3     0.51300    3.28338   -1.58504   23.60657
     192      444        3     0.16042    0.83294    1.22255   24.42235
     193      444        3    -0.14115    1.31132    0.00735   23.94432
     194      444        3    -0.05801    2.67328   -0.29227   24.08222
     195      444        3    -0.14115    3.50523    0.66522   24.67507
     196      444        3     0.16042    2.94921    1.84622   25.15098
     197      444        3     0.68178    1.24478   -7.31955   24.73202
     198      444        3     0.68178    4.90849   -6.26954   21.41248
     199      444        3     0.20678    9.57265    2.22391   22.61677
     200      444        3    -0.14115    8.75345    3.16200   21.97870
     201      444        3    -0.05801    8.93064    4.52869   22.20651
     202      444        3    -0.14115    9.90856    4.96215   23.10890
     203      444        3    -0.05801   10.72843    4.02347   23.74301
     204      444        3    -0.14115   10.57685    2.65485   23.48858
     205      444        3     0.51300   10.16699   -0.21984   22.50682
     206      444        3     0.16042    7.73804   -3.04976   21.70607
     207      444        3    -0.14115    8.20428   -1.82675   22.17553
     208      444        3    -0.05801    9.56337   -1.51630   22.03578
     209      444        3    -0.14115   10.40412   -2.46796   21.44623
     210      444        3     0.16042    9.86001   -3.65676   20.97730
     211      444        3     0.68178    8.09605    5.50601   21.42408
     212      444        3     0.68178   11.80290    4.45279   24.70104
     213      444        4    -0.41518   11.33758    3.08391   15.76821
     214      444        4    -0.28797   12.15788   -1.70456   14.51817
     215      444        4    -0.41518    4.46431   -0.44101   17.20004
     216      444        4    -0.28797    5.24408    4.35918   18.44731
     217      444        4    -0.41518    2.45323   -2.66776   23.78085
     218      444        4    -0.28797    1.63306    2.12076   25.03115
     219      444        4    -0.41518    9.32657    0.85753   22.34823
     220      444        4    -0.28797    8.54672   -3.94267   21.10122
     221      444        5    -0.49754    9.36949    2.04257   16.41972
     222      444        6    -0.59728   13.49180    7.24663   14.12162
     223      444        6    -0.59728   12.25100   -4.87711   14.88467
     224      444        5    -0.59728    9.13758   -6.11110   18.83147
     225      444        5    -0.59728    7.84449    5.94975   18.18404
     226      444        5    -0.49754    2.47826    0.62306   16.47905
     227      444        5    -0.59728    6.65292   -4.60219   18.80457
     228      444        5    -0.59728    5.31977    7.52372   18.06723
     229      444        6    -0.59728    2.16168    8.76170   14.14878
     230      444        6    -0.59728    0.95134   -3.29884   14.81111
     231      444        5    -0.49754    4.42134   -1.62653   23.12947
     232      444        6    -0.59728    0.29928   -6.83049   25.42783
     233      444        6    -0.59728    1.53980    5.29322   24.66439
     234      444        5    -0.59728    4.65348    6.52732   20.71746
     235      444        5    -0.59728    5.94634   -5.53340   21.36502
     236      444        5    -0.49754   11.31237   -0.17122   22.96520
     237      444        5    -0.59728    7.13820    5.01837   20.74435
     238      444        5    -0.59728    8.47112   -7.10752   21.48209
     239      444        6    -0.59728   11.62932   -8.34525   25.40028
     240      444        6    -0.59728   12.83933    3.71486   24.73861
     241      444        1     0.92703    0.73448   22.12651   12.69045
     242      444        1     0.92703    7.66654   12.67497    7.07782
     243      444        1     0.92703   12.96502   14.91963    0.49173
     244      444        1     0.92703    6.03304   24.37093    6.10503
     245      444        2     0.30194   12.14398   21.22038    2.05527
     246      444        2     0.11949   12.61971   23.39360    1.48918
     247      444        2     0.11949   10.61820   12.72806    3.53100
     248      444        2     0.11949    9.40677   22.47956    4.23129
     249      444        2     0.11949    0.15450   17.22330    2.04802
     250      444        2     0.11949   13.13072   19.39940    2.91877
     251      444        2     0.11949    9.17290   18.25867    1.59188
     252      444        2     0.11949   10.19654   16.12728    0.70913
     253      444        2     0.30194    5.27683   18.05483    4.53530
     254      444        2     0.11949    5.76961   15.87907    5.08636
     255      444        2     0.11949    3.66823   26.54570    3.06761
     256      444        2     0.11949    2.51491   16.79358    2.39434
     257      444        2     0.11949    7.04998   22.07657    4.55494
     258      444        2     0.11949    6.24499   19.88738    3.69592
     259      444        2     0.11949    2.27633   20.99408    5.02044
     260      444        2     0.11949    3.27930   23.14204    5.89146
     261      444        2     0.30194    1.55543   15.82549   11.12692
     262      444        2     0.11949    1.07969   13.65210   11.69340
     263      444        2     0.11949    3.08129   24.31768    9.65158
     264      444        2     0.11949    4.29269   14.56618    8.95142
     265      444        2     0.11949   13.54498   19.82243   11.13496
     266      444        2     0.11949    0.56872   17.64631   10.26421
     267      444        2     0.11949    4.52660   18.78702   11.59097
     268      444        2     0.11949    3.50301   20.91844   12.47359
     269      444        2     0.30194    8.42270   18.99097    8.64741
     270      444        2     0.11949    7.92995   21.16668    8.09649
     271      444        2     0.11949   10.03131   10.50005   10.11524
     272      444        2     0.11949   11.18444   20.25217   10.78864
     273      444        2     0.11949    6.64943   14.96933    8.62711
     274      444        2     0.11949    7.45428   17.15840    9.48666
     275      444        2     0.11949   11.42310   16.05172    8.16267
     276      444        2     0.11949   10.42024   13.90380    7.29139
     277      444        3     0.20678   11.04405   22.76571    2.85101
     278      444        3    -0.14115   11.85171   23.70441    2.19870
     279      444        3    -0.05801   11.67573   25.07158    2.42545
     280      444        3    -0.14115   10.71059   25.50461    3.34195
     281      444        3    -0.05801    9.90141   24.56611    3.98819
     282      444        3    -0.14115   10.05145   23.19725    3.73481
     283      444        3     0.51300   10.46182   20.31589    2.75965
     284      444        3     0.16042   12.91224   17.50840    1.94387
     285      444        3    -0.14115   12.43382   18.72363    2.42176
     286      444        3    -0.05801   11.07188   19.02319    2.28386
     287      444        3    -0.14115   10.23997   18.06564    1.69101
     288      444        3     0.16042   10.79602   16.88485    1.21457
     289      444        3     0.68178   12.50039   26.05045    1.63393
     290      444        3     0.68178    8.83682   25.00038    4.95373
     291      444        3     0.20678    4.17246   16.50704    3.74944
     292      444        3    -0.14115    4.99185   15.56896    4.38725
     293      444        3    -0.05801    4.81453   14.20235    4.15931
     294      444        3    -0.14115    3.83661   13.76909    3.25639
     295      444        3    -0.05801    3.01677   14.70751    2.62307
     296      444        3    -0.14115    3.16828   16.07611    2.87764
     297      444        3     0.51300    3.57787   18.95067    3.85992
     298      444        3     0.16042    6.00710   21.78071    4.66014
     299      444        3    -0.14115    5.54082   20.55812    4.18950
     300      444        3    -0.05801    4.18174   20.24757    4.32938
     301      444        3    -0.14115    3.34102   21.19886    4.91998
     302      444        3     0.16042    3.88516   22.38766    5.38891
     303      444        3     0.68178    5.64934   13.22495    4.94174
     304      444        3     0.68178    1.94218   14.27816    1.66517
     305      444        3     0.20678    2.65533   14.28002   10.33157
     306      444        3    -0.14115    1.84770   13.34129   10.98401
     307      444        3    -0.05801    2.02374   11.97414   10.75726
     308      444        3    -0.14115    2.98881   11.54112    9.84063
     309      444        3    -0.05801    3.79798   12.47962    9.19439
     310      444        3    -0.14115    3.64807   13.84884    9.44685
     311      444        3     0.51300    3.23768   16.72975   10.42333
     312      444        3     0.16042    0.78724   19.53735   11.23911
     313      444        3    -0.14115    1.26562   18.32214   10.76108
     314      444        3    -0.05801    2.62757   18.02252   10.89898
     315      444        3    -0.14115    3.45953   18.98001   11.49183
     316      444        3     0.16042    2.90351   20.16101   11.96774
     317      444        3     0.68178    1.19907   10.99525   11.54878
     318      444        3     0.68178    4.86278   12.04526    8.22924
     319      444        3     0.20678    9.52695   20.53871    9.43353
     320      444        3    -0.14115    8.70775   21.47679    8.79546
     321      444        3    -0.05801    8.88494   22.84349    9.02327
     322      444        3    -0.14115    9.86286   23.27694    9.92566
     323      444        3    -0.05801   10.68272   22.33826   10.55977
     324      444        3    -0.14115   10.53115   20.96965   10.30534
     325      444        3     0.51300   10.12128   18.09495    9.32358
     326      444        3     0.16042    7.69234   15.26503    8.52283
     327      444        3    -0.14115    8.15857   16.48804    8.99229
     328      444        3    -0.05801    9.51766   16.79849    8.85254
     329      444        3    -0.14115   10.35842   15.84683    8.26299
     330      444        3     0.16042    9.81431   14.65803    7.79406
     331      444        3     0.68178    8.05035   23.82080    8.24084
     332      444        3     0.68178   11.75719   22.76759   11.51780
     333      444        4    -0.41518   11.29188   21.39870    2.58497
     334      444        4    -0.28797   12.11218   16.61023    1.33493
     335      444        4    -0.41518    4.41861   17.87378    4.01680
     336      444        4    -0.28797    5.19838   22.67398    5.26407
     337      444        4    -0.41518    2.40752   15.64704   10.59761
     338      444        4    -0.28797    1.58736   20.43555   11.84791
     339      444        4    -0.41518    9.28087   19.17232    9.16499
     340      444        4    -0.28797    8.50102   14.37212    7.91799
     341      444        5    -0.49754    9.32379   20.35736    3.23649
     342      444        6    -0.59728   13.44610   25.56142    0.93838
     343      444        6    -0.59728   12.20530   13.43768    1.70143
     344      444        5    -0.59728    9.09188   12.20370    5.64823
     345      444        5    -0.59728    7.79879   24.26454    5.00080
     346      444        5    -0.49754    2.43255   18.93785    3.29581
     347      444        5    -0.59728    6.60721   13.71261    5.62133
     348      444        5    -0.59728    5.27407   25.83852    4.88399
     349      444        6    -0.59728    2.11598   27.07650    0.96554
     350      444        6    -0.59728    0.90564   15.01595    1.62787
     351      444        5    -0.49754    4.37564   16.68826    9.94623
     352      444        6    -0.59728    0.25358   11.48431   12.24459
     353      444        6    -0.59728    1.49410   23.60802   11.48115
     354      444        5    -0.59728    4.60778   24.84211    7.53422
     355      444        5    -0.59728    5.90063   12.78139    8.18178
     356      444        5    -0.49754   11.26667   18.14357    9.78196
     357      444        5    -0.59728    7.09250   23.33316    7.56111
     358      444        5    -0.59728    8.42541   11.20727    8.29885
     359      444        6    -0.59728   11.58361    9.96955   12.21704
     360      444        6    -0.59728   12.79362   22.02965   11.55537
     361      444        1     0.92703    0.74274   17.65166   25.87369
     362      444        1     0.92703    7.67480    8.20012   20.26106
     363      444        1     0.92703   12.97328   10.44479   13.67497
     364      444        1     0.92703    6.04130   19.89609   19.28826
     365      444        2     0.30194   12.15225   16.74554   15.23851
     366      444        2     0.11949   12.62797   18.91875   14.67242
     367      444        2     0.11949   10.62646    8.25321   16.71424