Created on Tue Feb 06 14:40:35 2018 

        1368 atoms
        1728 bonds
        3384 angles
        2376 dihedrals

           4 atom types
           4 bond types
           5 angle types
           1 dihedral types
           0.000000  27.226500 xlo xhi
           0.000000  25.801752 ylo yhi
           0.000000  37.978000 zlo zhi
           9.275979   0.004641  -0.000260 xy xz yz

Masses

    1    69.723000000 # Ga3+3
    2    30.973762000 # P_3+3
    3    15.999400000 # O_3_z
    4    15.999400000 # O_2

Bond Coeffs

    1      278.852286        1.708546  # Ga3+3 O_3_z
    2      235.585095        1.807322  # Ga3+3 O_2
    3      525.874428        1.608032  # P_3+3 O_3_z
    4      435.888856        1.711841  # P_3+3 O_2

Angle Coeffs

    1       73.886891        0.343737        0.374972        0.281246 # O_3_z Ga3+3 O_3_z
    2       64.030708        0.343737        0.374972        0.281246 # O_3_z Ga3+3 O_2
    3      153.911409        0.253309        0.066566        0.251103 # O_3_z P_3+3 O_3_z
    4      131.036901        0.253309        0.066566        0.251103 # O_3_z P_3+3 O_2
    5       42.860816        1.898490        2.651251        0.799497 # Ga3+3 O_3_z P_3+3

Dihedral Coeffs

    1        0.136931               1               2 # O_3_z P_3+3 O_3_z Ga3+3

Pair Coeffs

    1        0.415000        3.904809 # Ga3+3 Ga3+3
    2        0.305000        3.694557 # P_3+3 P_3+3
    3        0.060000        3.118146 # O_3_z O_3_z
    4        0.060000        3.118146 # O_2 O_2

Atoms

       1      444        1     1.74180    2.39314    2.99672    7.79337
       2      444        1     1.71011    0.98731    1.81405    3.48351
       3      444        1     1.74820    5.62951    2.57735    3.36531
       4      444        1     1.75100    3.75120    1.30423   17.28643
       5      444        1     1.70977    5.15605    2.48605   12.97887
       6      444        1     1.74861    9.58832    1.72073   12.84669
       7      444        1     1.74095    9.83356    5.60334   11.19491
       8      444        1     1.71083   11.23943    6.78489   15.50382
       9      444        1     1.74847    6.59683    6.02274   15.62360
      10      444        1     1.73846    8.47546    7.29597    1.70105
      11      444        1     1.70963    7.07124    6.11525    6.01055
      12      444        1     1.74740    2.63761    6.88072    6.14091
      13      444        2     1.88110    3.56558    1.05000    1.57143
      14      444        2     1.92723    4.47914    4.30361    5.70280
      15      444        2     1.77019    2.08751    0.12134    6.67874
      16      444        2     1.91067    2.58118    3.25401   11.06483
      17      444        2     1.92451    4.75643    8.59891   15.19118
      18      444        2     1.77810    4.05053    4.17523   16.15989
      19      444        2     1.91302    8.66109    7.54990   17.41633
      20      444        2     1.92724    7.74815    4.29788   13.28605
      21      444        2     1.77866   10.13855    8.47952   12.30966
      22      444        2     1.91131    9.64976    5.35016    7.92191
      23      444        2     1.92265    7.46902    0.00104    3.79810
      24      444        2     1.77720    8.17631    4.42531    2.82883
      25      444        3    -0.87306    3.71244    8.28868    6.72961
      26      444        3    -0.82291    2.32883    1.13626    7.79381
      27      444        3    -0.91677    3.32593    0.92553    0.00000
      28      444        3    -0.91121    3.92116    3.65045    6.97766
      29      444        3    -0.88516    2.30407    1.61610    2.22523
      30      444        3    -0.89649    6.94510    8.23398    2.17390
      31      444        4    -0.39378    2.49108    0.82584    5.25517
      32      444        3    -0.92641    5.97201    4.62196    5.97941
      33      444        3    -0.86743    6.17116    7.56984    6.74533
      34      444        3    -0.90476    4.38096    3.31868    4.50875
      35      444        3    -0.95136    3.69334    5.59107    5.31396
      36      444        3    -0.91423    4.79325    1.98388    1.82192
      37      444        4    -0.50994    1.67342    2.09326    5.20312
      38      444        3    -0.88205    5.51830    4.60622   16.18087
      39      444        3    -0.82989    3.81434    3.16467   17.28825
      40      444        3    -0.91363    2.82142    3.37790    9.55904
      41      444        3    -0.91283    2.22234    0.65197   16.47066
      42      444        3    -0.89560    3.84231    2.68755   11.71880
      43      444        3    -0.90770    2.28868    4.66723   11.66735
      44      444        4    -0.39519    3.65173    3.47540   14.74980
      45      444        3    -0.92818    3.26525    8.27672   15.47165
      46      444        3    -0.87009    3.06010    5.32780   16.23694
      47      444        3    -0.90497    1.75812    0.98051   14.00080
      48      444        3    -0.94984    5.54625    7.31616   14.79180
      49      444        3    -0.92673    1.35396    2.32036   11.31404
      50      444        4    -0.50609    4.46779    2.20702   14.69777
      51      444        3    -0.87850    8.51345    0.31281   12.25858
      52      444        3    -0.82749    9.89009    7.46336   11.19109
      53      444        3    -0.91408    8.90208    7.67379   18.92237
      54      444        3    -0.91282    8.30561    4.94959   12.01020
      55      444        3    -0.89753    9.92192    6.98373   16.76117
      56      444        3    -0.91373    5.28186    0.36629   16.81425
      57      444        4    -0.39474    9.75694    7.78839   13.72884
      58      444        3    -0.92742    6.25531    3.97916   13.01009
      59      444        3    -0.87026    6.05455    1.03075   12.24373
      60      444        3    -0.90426    7.84660    5.28472   14.47879
      61      444        3    -0.95012    8.53430    3.01095   13.67586
      62      444        3    -0.92612    7.43308    6.61616   17.16685
      63      444        4    -0.50823   10.56195    6.51292   13.77965
      64      444        3    -0.88104    6.70914    3.99261    2.80735
      65      444        3    -0.82360    8.41194    5.43568    1.70018
      66      444        3    -0.91233    9.40999    5.22455    9.42751
      67      444        3    -0.91053   10.00437    7.94918    2.51576
      68      444        3    -0.89606    8.38840    5.91679    7.26832
      69      444        3    -0.90967    9.94170    3.93726    7.31861
      70      444        4    -0.39354    8.57397    5.12595    4.23876
      71      444        3    -0.92741    8.95995    0.32411    3.51758
      72      444        3    -0.86834    9.16833    3.27403    2.75234
      73      444        3    -0.90272   10.46411    7.61872    4.98532
      74      444        3    -0.94753    6.67851    1.28316    4.19854
      75      444        3    -0.92454   10.87752    6.28421    7.67214
      76      444        4    -0.50821    7.75653    6.39352    4.29028
      77      444        1     1.74180    2.39546    2.99659   26.78237
      78      444        1     1.71011    0.98963    1.81392   22.47251
      79      444        1     1.74820    5.63183    2.57722   22.35431
      80      444        1     1.75100    3.75352    1.30410   36.27543
      81      444        1     1.70977    5.15837    2.48592   31.96787
      82      444        1     1.74861    9.59064    1.72060   31.83568
      83      444        1     1.74095    9.83588    5.60321   30.18391
      84      444        1     1.71083   11.24175    6.78476   34.49282
      85      444        1     1.74847    6.59915    6.02261   34.61260
      86      444        1     1.73846    8.47778    7.29584   20.69005
      87      444        1     1.70963    7.07356    6.11512   24.99955
      88      444        1     1.74740    2.63993    6.88059   25.12991
      89      444        2     1.88110    3.56790    1.04987   20.56043
      90      444        2     1.92723    4.48146    4.30348   24.69180
      91      444        2     1.77019    2.08984    0.12121   25.66773
      92      444        2     1.91067    2.58350    3.25388   30.05383
      93      444        2     1.92451    4.75875    8.59878   34.18018
      94      444        2     1.77810    4.05285    4.17510   35.14889
      95      444        2     1.91302    8.66341    7.54977   36.40533
      96      444        2     1.92724    7.75047    4.29775   32.27505
      97      444        2     1.77866   10.14087    8.47939   31.29866
      98      444        2     1.91131    9.65208    5.35003   26.91091
      99      444        2     1.92265    7.47134    0.00091   22.78710
     100      444        2     1.77720    8.17863    4.42518   21.81783
     101      444        3    -0.87306    3.71476    8.28855   25.71861
     102      444        3    -0.82291    2.33115    1.13613   26.78281
     103      444        3    -0.91677    3.32825    0.92540   18.98900
     104      444        3    -0.91121    3.92348    3.65032   25.96666
     105      444        3    -0.88516    2.30639    1.61597   21.21423
     106      444        3    -0.89649    6.94742    8.23385   21.16290
     107      444        4    -0.39378    2.49340    0.82571   24.24417
     108      444        3    -0.92641    5.97433    4.62183   24.96841
     109      444        3    -0.86743    6.17348    7.56971   25.73433
     110      444        3    -0.90476    4.38328    3.31855   23.49775
     111      444        3    -0.95136    3.69566    5.59094   24.30296
     112      444        3    -0.91423    4.79557    1.98375   20.81092
     113      444        4    -0.50994    1.67574    2.09313   24.19212
     114      444        3    -0.88205    5.52062    4.60609   35.16987
     115      444        3    -0.82989    3.81667    3.16454   36.27725
     116      444        3    -0.91363    2.82374    3.37777   28.54804
     117      444        3    -0.91283    2.22466    0.65184   35.45966
     118      444        3    -0.89560    3.84463    2.68742   30.70780
     119      444        3    -0.90770    2.29100    4.66710   30.65635
     120      444        4    -0.39519    3.65405    3.47527   33.73880
     121      444        3    -0.92818    3.26757    8.27659   34.46065
     122      444        3    -0.87009    3.06242    5.32767   35.22594
     123      444        3    -0.90497    1.76044    0.98038   32.98980
     124      444        3    -0.94984    5.54857    7.31603   33.78080
     125      444        3    -0.92673    1.35628    2.32023   30.30304
     126      444        4    -0.50609    4.47011    2.20689   33.68677
     127      444        3    -0.87850    8.51577    0.31268   31.24758
     128      444        3    -0.82749    9.89241    7.46323   30.18009
     129      444        3    -0.91408    8.90440    7.67366   37.91137
     130      444        3    -0.91282    8.30793    4.94946   30.99920
     131      444        3    -0.89753    9.92424    6.98360   35.75017
     132      444        3    -0.91373    5.28418    0.36616   35.80325
     133      444        4    -0.39474    9.75926    7.78826   32.71784
     134      444        3    -0.92742    6.25763    3.97903   31.99909
     135      444        3    -0.87026    6.05687    1.03062   31.23273
     136      444        3    -0.90426    7.84892    5.28459   33.46779
     137      444        3    -0.95012    8.53662    3.01082   32.66486
     138      444        3    -0.92612    7.43540    6.61603   36.15585
     139      444        4    -0.50823   10.56427    6.51279   32.76865
     140      444        3    -0.88104    6.71146    3.99248   21.79635
     141      444        3    -0.82360    8.41426    5.43555   20.68918
     142      444        3    -0.91233    9.41231    5.22442   28.41651
     143      444        3    -0.91053   10.00669    7.94905   21.50476
     144      444        3    -0.89606    8.39072    5.91666   26.25732
     145      444        3    -0.90967    9.94402    3.93713   26.30761
     146      444        4    -0.39354    8.57629    5.12582   23.22776
     147      444        3    -0.92741    8.96227    0.32398   22.50658
     148      444        3    -0.86834    9.17065    3.27390   21.74134
     149      444        3    -0.90272   10.46643    7.61859   23.97431
     150      444        3    -0.94753    6.68083    1.28303   23.18754
     151      444        3    -0.92454   10.87984    6.28408   26.66114
     152      444        4    -0.50821    7.75885    6.39339   23.27928
     153      444        1     1.74180    5.48514   11.59730    7.79337
     154      444        1     1.71011    4.07930   10.41463    3.48351
     155      444        1     1.74820    8.72150   11.17793    3.36531
     156      444        1     1.75100    6.84319    9.90481   17.28643
     157      444        1     1.70977    8.24804   11.08663   12.97887
     158      444        1     1.74861   12.68032   10.32132   12.84669
     159      444        1     1.74095   12.92555   14.20393   11.19491
     160      444        1     1.71083   14.33142   15.38548   15.50382
     161      444        1     1.74847    9.68882   14.62333   15.62360
     162      444        1     1.73846   11.56746   15.89655    1.70105
     163      444        1     1.70963   10.16323   14.71583    6.01055
     164      444        1     1.74740    5.72960   15.48130    6.14091
     165      444        2     1.88110    6.65757    9.65058    1.57143
     166      444        2     1.92723    7.57113   12.90419    5.70280
     167      444        2     1.77019    5.17951    8.72193    6.67874
     168      444        2     1.91067    5.67317   11.85459   11.06483
     169      444        2     1.92451    7.84842   17.19950   15.19118
     170      444        2     1.77810    7.14252   12.77582   16.15989
     171      444        2     1.91302   11.75308   16.15049   17.41633
     172      444        2     1.92724   10.84014   12.89846   13.28605
     173      444        2     1.77866   13.23054   17.08011   12.30966
     174      444        2     1.91131   12.74175   13.95075    7.92191
     175      444        2     1.92265   10.56102    8.60162    3.79810
     176      444        2     1.77720   11.26831   13.02589    2.82883
     177      444        3    -0.87306    6.80443   16.88926    6.72961
     178      444        3    -0.82291    5.42082    9.73684    7.79381
     179      444        3    -0.91677    6.41792    9.52611    0.00000
     180      444        3    -0.91121    7.01315   12.25104    6.97766
     181      444        3    -0.88516    5.39606   10.21669    2.22523
     182      444        3    -0.89649   10.03709   16.83456    2.17390
     183      444        4    -0.39378    5.58308    9.42643    5.25517
     184      444        3    -0.92641    9.06401   13.22255    5.97941
     185      444        3    -0.86743    9.26316   16.17043    6.74533
     186      444        3    -0.90476    7.47295   11.91926    4.50875
     187      444        3    -0.95136    6.78533   14.19165    5.31396
     188      444        3    -0.91423    7.88525   10.58447    1.82192
     189      444        4    -0.50994    4.76541   10.69384    5.20312
     190      444        3    -0.88205    8.61029   13.20681   16.18087
     191      444        3    -0.82989    6.90634   11.76526   17.28825
     192      444        3    -0.91363    5.91341   11.97848    9.55904
     193      444        3    -0.91283    5.31434    9.25255   16.47066
     194      444        3    -0.89560    6.93430   11.28813   11.71880
     195      444        3    -0.90770    5.38067   13.26782   11.66735
     196      444        4    -0.39519    6.74372   12.07598   14.74980
     197      444        3    -0.92818    6.35725   16.87730   15.47165
     198      444        3    -0.87009    6.15209   13.92838   16.23694
     199      444        3    -0.90497    4.85011    9.58109   14.00080
     200      444        3    -0.94984    8.63825   15.91674   14.79180
     201      444        3    -0.92673    4.44595   10.92094   11.31404
     202      444        4    -0.50609    7.55978   10.80760   14.69777
     203      444        3    -0.87850   11.60544    8.91339   12.25858
     204      444        3    -0.82749   12.98208   16.06394   11.19109
     205      444        3    -0.91408   11.99407   16.27438   18.92237
     206      444        3    -0.91282   11.39760   13.55017   12.01020
     207      444        3    -0.89753   13.01391   15.58432   16.76117
     208      444        3    -0.91373    8.37385    8.96687   16.81425
     209      444        4    -0.39474   12.84893   16.38897   13.72884
     210      444        3    -0.92742    9.34730   12.57974   13.01009
     211      444        3    -0.87026    9.14654    9.63133   12.24373
     212      444        3    -0.90426   10.93859   13.88530   14.47879
     213      444        3    -0.95012   11.62630   11.61154   13.67586
     214      444        3    -0.92612   10.52507   15.21674   17.16685
     215      444        4    -0.50823   13.65394   15.11351   13.77965
     216      444        3    -0.88104    9.80114   12.59320    2.80735
     217      444        3    -0.82360   11.50393   14.03626    1.70018
     218      444        3    -0.91233   12.50199   13.82513    9.42751
     219      444        3    -0.91053   13.09636   16.54976    2.51576
     220      444        3    -0.89606   11.48040   14.51737    7.26832
     221      444        3    -0.90967   13.03370   12.53785    7.31861
     222      444        4    -0.39354   11.66596   13.72654    4.23876
     223      444        3    -0.92741   12.05194    8.92470    3.51758
     224      444        3    -0.86834   12.26032   11.87462    2.75234
     225      444        3    -0.90272   13.55610   16.21931    4.98532
     226      444        3    -0.94753    9.77051    9.88375    4.19854
     227      444        3    -0.92454   13.96951   14.88479    7.67214
     228      444        4    -0.50821   10.84852   14.99411    4.29028
     229      444        1     1.74180    5.48746   11.59717   26.78237
     230      444        1     1.71011    4.08162   10.41450   22.47251
     231      444        1     1.74820    8.72382   11.17780   22.35431
     232      444        1     1.75100    6.84551    9.90468   36.27543
     233      444        1     1.70977    8.25036   11.08650   31.96787
     234      444        1     1.74861   12.68264   10.32119   31.83568
     235      444        1     1.74095   12.92787   14.20380   30.18391
     236      444        1     1.71083   14.33374   15.38535   34.49282
     237      444        1     1.74847    9.69114   14.62320   34.61260
     238      444        1     1.73846   11.56978   15.89642   20.69005
     239      444        1     1.70963   10.16555   14.71570   24.99955
     240      444        1     1.74740    5.73192   15.48117   25.12991
     241      444        2     1.88110    6.65989    9.65045   20.56043
     242      444        2     1.92723    7.57345   12.90406   24.69180
     243      444        2     1.77019    5.18183    8.72180   25.66773
     244      444        2     1.91067    5.67549   11.85446   30.05383
     245      444        2     1.92451    7.85074   17.19937   34.18018
     246      444        2     1.77810    7.14484   12.77569   35.14889
     247      444        2     1.91302   11.75540   16.15036   36.40533
     248      444        2     1.92724   10.84246   12.89833   32.27505
     249      444        2     1.77866   13.23287   17.07998   31.29866
     250      444        2     1.91131   12.74407   13.95062   26.91091
     251      444        2     1.92265   10.56334    8.60149   22.78710
     252      444        2     1.77720   11.27063   13.02576   21.81783
     253      444        3    -0.87306    6.80675   16.88913   25.71861
     254      444        3    -0.82291    5.42314    9.73671   26.78281
     255      444        3    -0.91677    6.42024    9.52598   18.98900
     256      444        3    -0.91121    7.01547   12.25091   25.96666
     257      444        3    -0.88516    5.39838   10.21656   21.21423
     258      444        3    -0.89649   10.03941   16.83443   21.16290
     259      444        4    -0.39378    5.58540    9.42630   24.24417
     260      444        3    -0.92641    9.06633   13.22242   24.96841
     261      444        3    -0.86743    9.26548   16.17030   25.73433
     262      444        3    -0.90476    7.47527   11.91913   23.49775
     263      444        3    -0.95136    6.78765   14.19152   24.30296
     264      444        3    -0.91423    7.88757   10.58434   20.81092
     265      444        4    -0.50994    4.76773   10.69371   24.19212
     266      444        3    -0.88205    8.61261   13.20668   35.16987
     267      444        3    -0.82989    6.90866   11.76513   36.27725
     268      444        3    -0.91363    5.91573   11.97835   28.54804
     269      444        3    -0.91283    5.31666    9.25242   35.45966
     270      444        3    -0.89560    6.93662   11.28800   30.70780
     271      444        3    -0.90770    5.38299   13.26769   30.65635
     272      444        4    -0.39519    6.74604   12.07585   33.73880
     273      444        3    -0.92818    6.35957   16.87717   34.46065
     274      444        3    -0.87009    6.15441   13.92825   35.22594
     275      444        3    -0.90497    4.85243    9.58096   32.98980
     276      444        3    -0.94984    8.64057   15.91661   33.78080
     277      444        3    -0.92673    4.44827   10.92081   30.30304
     278      444        4    -0.50609    7.56210   10.80747   33.68677
     279      444        3    -0.87850   11.60776    8.91326   31.24758
     280      444        3    -0.82749   12.98440   16.06381   30.18009
     281      444        3    -0.91408   11.99639   16.27425   37.91137
     282      444        3    -0.91282   11.39992   13.55004   30.99920
     283      444        3    -0.89753   13.01623   15.58419   35.75017
     284      444        3    -0.91373    8.37617    8.96674   35.80325
     285      444        4    -0.39474   12.85125   16.38884   32.71784
     286      444        3    -0.92742    9.34962   12.57961   31.99909
     287      444        3    -0.87026    9.14886    9.63120   31.23273
     288      444        3    -0.90426   10.94091   13.88517   33.46779
     289      444        3    -0.95012   11.62862   11.61141   32.66486
     290      444        3    -0.92612   10.52739   15.21661   36.15585
     291      444        4    -0.50823   13.65626   15.11338   32.76865
     292      444        3    -0.88104    9.80346   12.59307   21.79635
     293      444        3    -0.82360   11.50625   14.03613   20.68918
     294      444        3    -0.91233   12.50431   13.82500   28.41651
     295      444        3    -0.91053   13.09868   16.54963   21.50476
     296      444        3    -0.89606   11.48272   14.51724   26.25732
     297      444        3    -0.90967   13.03602   12.53772   26.30761
     298      444        4    -0.39354   11.66828   13.72641   23.22776
     299      444        3    -0.92741   12.05426    8.92457   22.50658
     300      444        3    -0.86834   12.26264   11.87449   21.74134
     301      444        3    -0.90272   13.55842   16.21918   23.97431
     302      444        3    -0.94753    9.77283    9.88362   23.18754
     303      444        3    -0.92454   13.97183   14.88466   26.66114
     304      444        4    -0.50821   10.85084   14.99398   23.27928
     305      444        1     1.74180    8.57713   20.19788    7.79337
     306      444        1     1.71011    7.17129   19.01521    3.48351
     307      444        1     1.74820   11.81349   19.77852    3.36531
     308      444        1     1.75100    9.93518   18.50540   17.28643
     309      444        1     1.70977   11.34004   19.68722   12.97887
     310      444        1     1.74861   15.77231   18.92190   12.84669
     311      444        1     1.74095   16.01755   22.80451   11.19491
     312      444        1     1.71083   17.42342   23.98606   15.50382
     313      444        1     1.74847   12.78081   23.22391   15.62360
     314      444        1     1.73846   14.65945   24.49713    1.70105
     315      444        1     1.70963   13.25523   23.31642    6.01055
     316      444        1     1.74740    8.82160   24.08189    6.14091
     317      444        2     1.88110    9.74956   18.25117    1.57143
     318      444        2     1.92723   10.66313   21.50478    5.70280
     319      444        2     1.77019    8.27150   17.32251    6.67874
     320      444        2     1.91067    8.76516   20.45517   11.06483
     321      444        2     1.92451   10.94041   25.80008   15.19118
     322      444        2     1.77810   10.23451   21.37640   16.15989
     323      444        2     1.91302   14.84507   24.75107   17.41633
     324      444        2     1.92724   13.93213   21.49905   13.28605
     325      444        2     1.77866   16.32254   25.68069   12.30966
     326      444        2     1.91131   15.83375   22.55133    7.92191
     327      444        2     1.92265   13.65301   17.20221    3.79810
     328      444        2     1.77720   14.36030   21.62648    2.82883
     329      444        3    -0.87306    9.89643   25.48985    6.72961
     330      444        3    -0.82291    8.51281   18.33742    7.79381
     331      444        3    -0.91677    9.50991   18.12669    0.00000
     332      444        3    -0.91121   10.10515   20.85162    6.97766
     333      444        3    -0.88516    8.48805   18.81727    2.22523
     334      444        3    -0.89649   13.12909   25.43515    2.17390
     335      444        4    -0.39378    8.67507   18.02701    5.25517
     336      444        3    -0.92641   12.15600   21.82313    5.97941
     337      444        3    -0.86743   12.35515   24.77101    6.74533
     338      444        3    -0.90476   10.56494   20.51984    4.50875
     339      444        3    -0.95136    9.87732   22.79223    5.31396
     340      444        3    -0.91423   10.97724   19.18505    1.82192
     341      444        4    -0.50994    7.85740   19.29443    5.20312
     342      444        3    -0.88205   11.70229   21.80739   16.18087
     343      444        3    -0.82989    9.99833   20.36584   17.28825
     344      444        3    -0.91363    9.00540   20.57907    9.55904
     345      444        3    -0.91283    8.40633   17.85313   16.47066
     346      444        3    -0.89560   10.02629   19.88872   11.71880
     347      444        3    -0.90770    8.47267   21.86840   11.66735
     348      444        4    -0.39519    9.83571   20.67656   14.74980
     349      444        3    -0.92818    9.44924   25.47789   15.47165
     350      444        3    -0.87009    9.24408   22.52896   16.23694
     351      444        3    -0.90497    7.94210   18.18168   14.00080
     352      444        3    -0.94984   11.73024   24.51733   14.79180
     353      444        3    -0.92673    7.53794   19.52153   11.31404
     354      444        4    -0.50609   10.65177   19.40818   14.69777
     355      444        3    -0.87850   14.69744   17.51397   12.25858
     356      444        3    -0.82749   16.07408   24.66452   11.19109
     357      444        3    -0.91408   15.08607   24.87496   18.92237
     358      444        3    -0.91282   14.48959   22.15076   12.01020
     359      444        3    -0.89753   16.10591   24.18490   16.76117
     360      444        3    -0.91373   11.46584   17.56746   16.81425
     361      444        4    -0.39474   15.94093   24.98956   13.72884
     362      444        3    -0.92742   12.43929   21.18033   13.01009
     363      444        3    -0.87026   12.23854   18.23192   12.24373
     364      444        3    -0.90426   14.03059   22.48589   14.47879
     365      444        3    -0.95012   14.71829   20.21212   13.67586
     366      444        3    -0.92612   13.61707   23.81733   17.16685
     367      444        4    -0.50823   16.74593   23.71409   13.77965
     368      444        3    -0.88104   12.89313   21.19378    2.80735
     369      444        3    -0.82360   14.59592   22.63685    1.70018
     370      444        3    -0.91233   15.59398   22.42572    9.42751
     371      444        3    -0.91053   16.18835   25.15034    2.51576
     372      444        3    -0.89606   14.57239   23.11796    7.26832
     373      444        3    -0.90967   16.12569   21.13843    7.31861
     374      444        4    -0.39354   14.75795   22.32712    4.23876
     375      444        3    -0.92741   15.14393   17.52528    3.51758
     376      444        3    -0.86834   15.35232   20.47520    2.75234
     377      444        3    -0.90272   16.64810   24.81989    4.98532
     378      444        3    -0.94753   12.86250   18.48433    4.19854
     379      444        3    -0.92454   17.06151   23.48537    7.67214
     380      444        4    -0.50821   13.94052   23.59469    4.29028
     381      444        1     1.74180    8.57945   20.19776   26.78237
     382      444        1     1.71011    7.17361   19.01508   22.47251
     383      444        1     1.74820   11.81581   19.77839   22.35431
     384      444        1     1.75100    9.93750   18.50527   36.27543
     385      444        1     1.70977   11.34236   19.68709   31.96787
     386      444        1     1.74861   15.77463   18.92177   31.83568
     387      444        1     1.74095   16.01987   22.80438   30.18391
     388      444        1     1.71083   17.42574   23.98593   34.49282
     389      444        1     1.74847   12.78313   23.22378   34.61260
     390      444        1     1.73846   14.66177   24.49701   20.69005
     391      444        1     1.70963   13.25755   23.31629   24.99955
     392      444        1     1.74740    8.82392   24.08176   25.12991
     393      444        2     1.88110    9.75188   18.25104   20.56043
     394      444        2     1.92723   10.66545   21.50465   24.69180
     395      444        2     1.77019    8.27382   17.32238   25.66773