Created on Tue Feb 06 14:27:47 2018 

        1248 atoms
        1576 bonds
        3088 angles
        3184 dihedrals
        1680 impropers

           8 atom types
          18 bond types
          39 angle types
          10 dihedral types
           1 improper types
           0.000000  37.486000 xlo xhi
           0.000000  32.537573 ylo yhi
           0.000000  30.644340 zlo zhi
          18.703134  18.714905  10.896208 xy xz yz

Masses

    1    63.546000000 # Cu4+2
    2    63.546000000 # Cu3+1
    3     1.007940000 # H_
    4    12.010700000 # C_R
    5    12.010700000 # C_2
    6    12.010700000 # C_3
    7    15.999400000 # O_2
    8    15.999400000 # O_R

Bond Coeffs

    1      221.999373        2.029549  # Cu4+2 O_2
    2       70.296579        3.032715  # Cu4+2 Cu4+2
    3       57.988603        2.604000  # Cu3+1 Cu3+1
    4      190.026252        1.918161  # Cu3+1 O_R
    5      134.454127        2.024036  # Cu3+1 C_R
    6      129.054019        2.051882  # Cu3+1 C_3
    7      357.440381        1.081418  # H_ C_R
    8      331.069389        1.109401  # H_ C_3
    9      354.483902        1.084416  # H_ C_2
   10      462.655054        1.379256  # C_R C_R
   11      391.669513        1.458000  # C_R C_R
   12      517.346067        1.328833  # C_2 C_2
   13      389.261715        1.461000  # C_2 C_R
   14      367.712375        1.489000  # C_2 C_3
   15      369.943935        1.486000  # C_3 C_R
   16      349.795899        1.514000  # C_3 C_3
   17      714.557442        1.269010  # C_R O_2
   18      646.680887        1.311940  # C_R O_R

Angle Coeffs

    1              cosine/periodic       54.106605               1               4 # O_2 Cu4+2 O_2
    2              cosine/periodic       17.208069               1               4 # Cu4+2 Cu4+2 O_2
    3                      fourier       13.624438        0.343737        0.374972        0.281246 # O_R Cu3+1 Cu3+1
    4                      fourier       41.426233        0.343737        0.374972        0.281246 # O_R Cu3+1 O_R
    5                      fourier       10.151311        0.343737        0.374972        0.281246 # Cu3+1 Cu3+1 C_R
    6                      fourier       30.036212        0.343737        0.374972        0.281246 # O_R Cu3+1 C_R
    7                      fourier       28.987032        0.343737        0.374972        0.281246 # C_3 Cu3+1 O_R
    8                      fourier       21.145880        0.343737        0.374972        0.281246 # C_3 Cu3+1 C_R
    9                      fourier       20.438954        0.343737        0.374972        0.281246 # C_3 Cu3+1 C_3
   10              cosine/periodic      117.010657              -1               3 # C_R C_R C_R
   11              cosine/periodic      101.626578              -1               3 # C_R C_R C_R
   12              cosine/periodic      110.514224              -1               3 # C_2 C_2 C_R
   13              cosine/periodic      140.960843              -1               3 # C_2 C_2 C_2
   14              cosine/periodic       83.652443              -1               3 # C_3 C_2 C_R
   15              cosine/periodic      105.100716              -1               3 # C_3 C_2 C_2
   16                      fourier       38.407725        0.343737        0.374972        0.281246 # Cu3+1 C_3 C_2
   17                      fourier      102.078857        0.343737        0.374972        0.281246 # C_R C_3 C_2
   18                      fourier       38.560649        0.343737        0.374972        0.281246 # Cu3+1 C_3 C_R
   19                      fourier       97.402037        0.343737        0.374972        0.281246 # C_3 C_3 C_2
   20                      fourier       37.159084        0.343737        0.374972        0.281246 # Cu3+1 C_3 C_3
   21                      fourier       97.888497        0.343737        0.374972        0.281246 # C_R C_3 C_3
   22              cosine/periodic      256.805977              -1               3 # O_2 C_R O_2
   23              cosine/periodic      148.862838              -1               3 # O_2 C_R C_R
   24              cosine/periodic      148.040476              -1               3 # C_2 C_R O_2
   25              cosine/periodic      217.450257              -1               3 # O_R C_R O_R
   26              cosine/periodic      137.761490              -1               3 # C_R C_R O_R
   27              cosine/periodic       49.353151              -1               3 # Cu3+1 C_R O_R
   28              cosine/periodic       31.999737              -1               3 # Cu3+1 C_R C_3
   29              cosine/periodic      130.962624              -1               3 # C_3 C_R O_R
   30              cosine/periodic       33.280564              -1               3 # Cu3+1 C_R C_R
   31              cosine/periodic       76.817955              -1               3 # H_ C_R C_R
   32              cosine/periodic       84.775358              -1               3 # C_2 C_2 H_
   33              cosine/periodic       61.230037              -1               3 # C_3 C_2 H_
   34                      fourier       69.847816        0.343737        0.374972        0.281246 # C_3 C_3 H_
   35                      fourier       23.959263        0.343737        0.374972        0.281246 # Cu3+1 C_3 H_
   36                      fourier       73.425056        0.343737        0.374972        0.281246 # C_2 C_3 H_
   37              cosine/periodic       59.956996              -1               3 # Cu4+2 O_2 C_R
   38              cosine/periodic       59.581990              -1               3 # Cu3+1 O_R C_R
   39              cosine/periodic       23.834619              -1               3 # Cu3+1 O_R Cu3+1

Dihedral Coeffs

    1        1.497136              -1               2 # C_R C_R C_R C_R
    2        0.555556              -1               2 # C_R C_R C_R O_2
    3        0.416667              -1               2 # C_R C_R C_R Cu3+1
    4        2.165197              -1               2 # C_R C_2 C_2 H_
    5        0.083333               1               3 # C_R C_2 C_3 H_
    6        0.312500              -1               2 # C_2 C_3 C_R O_R
    7        0.066219               1               3 # Cu3+1 C_3 C_3 C_2
    8        2.245703              -1               2 # C_R C_R O_2 Cu4+2
    9        1.684278              -1               2 # O_R C_R O_R Cu3+1
   10        1.122852              -1               2 # Cu3+1 C_R O_R Cu3+1

Improper Coeffs

    1        2.000000        1.000000       -1.000000        0.000000               0 # C_R C_R C_R C_R

Pair Coeffs

    1        0.005000        3.113691 # Cu4+2 Cu4+2
    2        0.005000        3.113691 # Cu3+1 Cu3+1
    3        0.044000        2.571134 # H_ H_
    4        0.105000        3.430851 # C_R C_R
    5        0.105000        3.430851 # C_2 C_2
    6        0.105000        3.430851 # C_3 C_3
    7        0.060000        3.118146 # O_2 O_2
    8        0.060000        3.118146 # O_R O_R

Atoms

       1      444        1     0.93605   14.66514    2.37058    6.65902
       2      444        2     0.93605   14.64834   14.64536   15.32156
       3      444        1     0.93605   22.78636   19.34625    8.66331
       4      444        2     0.93605   98.59795   51.20167  124.10958
       5      444        1     0.93605   14.66265    7.07186    0.00199
       6      444        1     0.93605   22.80604    2.36875    6.65902
       7      444        1     0.93605   22.78791   14.64384   15.31911
       8      444        1     0.93605   14.64501   19.34764    8.66285
       9      444        2     0.93605   83.58605   42.49669  119.51293
      10      444        1     0.93605   28.09239   10.14837    8.65703
      11      444        2     0.93605   26.85171   21.71472   15.32156
      12      444        1     0.93605    9.35389   11.56525    6.65764
      13      444        3     0.11471   25.34385   14.69109    7.72605
      14      444        3     0.11471   20.88262   12.09795    0.41830
      15      444        3     0.11471   16.58067    4.45273   11.24647
      16      444        3     0.11471   12.09901   12.20866   11.24663
      17      444        3     0.11471   18.73489    8.36531    0.41370
      18      444        3     0.11471   18.73648    3.18476    7.74045
      19      444        3     0.11471   23.18822   15.93543   11.24111
      20      444        3     0.11471   14.25513   15.93729   11.24096
      21      444        3     0.11471   20.88793    4.45097   11.25000
      22      444        3     0.11471   25.35115   12.21072   11.24724
      23      444        3     0.11471   16.57596   12.09191    0.42458
      24      444        3     0.11471   12.10596   14.68689    7.72421
      25      444        3     0.11471   12.10747    7.02574    7.59627
      26      444        3     0.11471   16.56693    9.61919   14.90342
      27      444        3     0.11471   25.35215    9.50821    4.07646
      28      444        3     0.11471   20.87045   17.26345    4.07524
      29      444        3     0.11471   20.87415    9.62258   14.89759
      30      444        3     0.11471   25.34486    7.02905    7.59826
      31      444        3     0.11471   12.09998    9.50507    4.07432
      32      444        3     0.11471   16.56329   17.26504    4.07294
      33      444        3     0.11471   23.19575    5.77938    4.08029
      34      444        3     0.11471   14.26340    5.78066    4.08167
      35      444        3     0.11471   18.71782   13.35070   14.90893
      36      444        3     0.11471   18.71550   18.53174    7.58172
      37      444        4    -0.17002   17.50418   17.90578    5.90777
      38      444        4    -0.17002   24.21013    6.28325    5.91926
      39      444        4    -0.17002   13.24275    7.67809    3.93642
      40      444        4    -0.17002   19.93117   11.56516   14.88273
      41      444        4    -0.17002   12.03028    8.37988    5.91589
      42      444        4    -0.17002   25.42086    8.38333    5.91803
      43      444        4    -0.17002   18.72077    9.46483   14.88196
      44      444        4    -0.17002   18.71706   17.19402    3.93320
      45      444        4    -0.17002   17.50671   11.56345   14.88579
      46      444        4    -0.17002   24.21253    7.67947    3.93734
      47      444        4    -0.17002   19.92822   17.90420    5.90930
      48      444        4    -0.17002   13.24595    6.28182    5.91880
      49      444        4    -0.17002   13.24097   15.43315    9.40291
      50      444        5    -0.17002   19.94742    3.81042    9.41471
      51      444        4    -0.17002   24.20847   14.03788   11.38560
      52      444        4    -0.17002   17.52029   10.15024    0.43975
      53      444        4    -0.17002   24.20533   15.43462    9.40352
      54      444        5    -0.17002   17.52334    3.81214    9.41256
      55      444        4    -0.17002   19.94476   10.15336    0.43684
      56      444        4    -0.17002   13.23871   14.03748   11.38514
      57      444        4    -0.17002   18.72950   12.25129    0.44067
      58      444        6    -0.17002   18.73417    4.52211   11.38912
      59      444        4    -0.17002   12.03008   13.33308    9.40475
      60      444        4    -0.17002   25.42085   13.33646    9.40597
      61      444        4     0.69241   23.84158   13.82797   12.82037
      62      444        4     0.69241   16.22861    9.40158    0.36176
      63      444        4     0.69241   21.23688    3.48147    8.73364
      64      444        4     0.69241   13.60422   16.71529    8.72536
      65      444        4     0.69241   18.72680   13.74429    0.36130
      66      444        4     0.69241   18.73263    4.94834   12.82205
      67      444        4     0.69241   26.34570   12.37580    8.72751
      68      444        4     0.69241   11.10585   12.37258    8.72751
      69      444        4     0.69241   16.23167    3.48646    8.73486
      70      444        4     0.69241   23.83720   16.71582    8.72567
      71      444        4     0.69241   21.23773    9.40639    0.35762
      72      444        4     0.69241   13.60284   13.82872   12.82037
      73      444        4     0.69241   13.60946    7.88808    2.50165
      74      444        4     0.69241   21.22296   12.31368   14.96057
      75      444        4     0.69241   23.84708    5.00089    6.59650
      76      444        4     0.69241   16.21203   18.23317    6.58440
      77      444        4     0.69241   16.21421   12.31119   14.96501
      78      444        4     0.69241   23.84593    7.88692    2.49751
      79      444        4     0.69241   13.61423    5.00085    6.59711
      80      444        4     0.69241   21.22001   18.22999    6.58700
      81      444        4     0.69241   26.34538    9.34361    6.59543
      82      444        4     0.69241   11.10482    9.34029    6.59313
      83      444        4     0.69241   18.72294    7.97176   14.96103
      84      444        4     0.69241   18.71842   16.76775    2.50027
      85      444        4     0.03416   18.71597   18.14189    6.56662
      86      444        4     0.03416   23.80639    6.51528    4.59941
      87      444        4     0.03416   13.65034    6.51479    4.59926
      88      444        4     0.03416   18.71855   12.26357   14.88503
      89      444        4     0.03416   12.43358    8.61082    4.59558
      90      444        4     0.03416   25.01537    7.21847    6.57919
      91      444        4     0.03416   19.93217   10.16577   14.87936
      92      444        4     0.03416   17.50480   17.42981    4.59175
      93      444        4     0.03416   17.50808   10.16389   14.88258
      94      444        4     0.03416   25.01896    8.61366    4.59742
      95      444        4     0.03416   19.92864   17.42879    4.59328
      96      444        4     0.03416   12.43747    7.21556    6.57750
      97      444        4     0.03416   12.43548   14.49780    8.74329
      98      444        5     0.03416   19.94661    4.28627   10.73088
      99      444        4     0.03416   25.01757   13.10521   10.72629
     100      444        4     0.03416   17.51854   11.54966    0.44312
     101      444        4     0.03416   23.80108   15.20141   10.72307
     102      444        5     0.03416   18.73581    3.57452    8.75570
     103      444        4     0.03416   18.73337    9.45251    0.43760
     104      444        4     0.03416   13.64470   15.20149   10.72276
     105      444        4     0.03416   19.94251   11.55288    0.44005
     106      444        6     0.03416   17.52257    4.28737   10.72858
     107      444        4     0.03416   12.43210   13.10318   10.72552
     108      444        4     0.03416   25.01361   14.50090    8.74436
     109      444        7    -0.56964   24.28329   12.76750   13.38162
     110      444        7    -0.56964   15.15737   10.09837    0.31564
     111      444        7    -0.56964   22.30994    3.67348    9.41118
     112      444        7    -0.56964   13.16109   16.88824    7.53851
     113      444        8    -0.56964   19.86594   14.32325    0.31656
     114      444        8    -0.56964   17.59187    5.09702   13.38008
     115      444        7    -0.56964   26.71586   12.66847    7.54004
     116      444        7    -0.56964   10.73641   11.35153    9.40260
     117      444        7    -0.56964   16.30394    3.01808    7.54724
     118      444        7    -0.56964   23.13604   17.54619    9.39939
     119      444        8    -0.56964   21.16611    8.13047    0.31349
     120      444        8    -0.56964   14.30223   14.74183   13.37901
     121      444        7    -0.56964   14.31123    6.97616    1.94408
     122      444        7    -0.56964   21.15032   13.58946   15.00362
     123      444        7    -0.56964   23.14854    4.16847    5.92278
     124      444        7    -0.56964   16.28399   18.70311    7.77140
     125      444        8    -0.56964   15.14357   11.61386   15.01036
     126      444        8    -0.56964   24.29113    8.94918    1.94163
     127      444        7    -0.56964   13.17306    4.82689    7.78443
     128      444        7    -0.56964   22.29047   18.04032    5.91405
     129      444        7    -0.56964   26.71482    9.05101    7.78397
     130      444        7    -0.56964   10.73514   10.36146    5.91819
     131      444        8    -0.56964   19.86406    7.39662   15.00684
     132      444        8    -0.56964   17.57834   16.61546    1.93979
     133      444        7    -0.56964   13.16752    8.94850    1.94040
     134      444        7    -0.56964   22.29395   11.61682   15.00638
     135      444        7    -0.56964   15.14179   18.04298    5.91129
     136      444        7    -0.56964   24.28968    4.82737    7.78213
     137      444        8    -0.56964   17.58381    7.39304   15.00638
     138      444        8    -0.56964   19.85918   16.61954    1.94209
     139      444        7    -0.56964   10.73482    9.04783    7.78060
     140      444        7    -0.56964   26.71461   10.36476    5.92033
     141      444        7    -0.56964   21.14774   18.69862    7.77447
     142      444        7    -0.56964   14.31531    4.17040    5.92340
     143      444        8    -0.56964   16.28614   13.58708   15.00883
     144      444        8    -0.56964   23.14909    6.97568    1.94331
     145      444        7    -0.56964   23.14002   14.74009   13.37794
     146      444        7    -0.56964   16.30120    8.12582    0.31809
     147      444        7    -0.56964   14.30262   17.54776    9.39908
     148      444        7    -0.56964   21.16771    3.01297    7.55123
     149      444        8    -0.56964   22.30818   10.10396    0.31227
     150      444        8    -0.56964   13.16071   12.76799   13.38085
     151      444        7    -0.56964   24.27851   16.88996    7.53835
     152      444        7    -0.56964   15.16127    3.67593    9.40797
     153      444        7    -0.56964   10.73663   12.66494    7.53881
     154      444        7    -0.56964   26.71600   11.35495    9.40352
     155      444        8    -0.56964   17.58565   14.31929    0.31487
     156      444        8    -0.56964   19.87211    5.09981   13.38192
     157      444        1     0.93605   24.02260    7.81868   21.98118
     158      444        2     0.93605   24.00580   20.09347   30.64373
     159      444        1     0.93605   32.14381   24.79436   23.98548
     160      444        2     0.93605  107.95540   56.64977  139.43175
     161      444        1     0.93605   24.02010   12.51996   15.32416
     162      444        1     0.93605   32.16349    7.81686   21.98118
     163      444        1     0.93605   32.14536   20.09194   30.64128
     164      444        1     0.93605   24.00246   24.79574   23.98502
     165      444        2     0.93605   92.94350   47.94480  134.83510
     166      444        1     0.93605   37.44984   15.59647   23.97920
     167      444        2     0.93605   36.20916   27.16282   30.64373
     168      444        1     0.93605   18.71134   17.01336   21.97981
     169      444        3     0.11471   34.70130   20.13920   23.04822
     170      444        3     0.11471   30.24008   17.54605   15.74047
     171      444        3     0.11471   25.93812    9.90083   26.56864
     172      444        3     0.11471   21.45647   17.65677   26.56880
     173      444        3     0.11471   28.09235   13.81341   15.73587
     174      444        3     0.11471   28.09393    8.63287   23.06262
     175      444        3     0.11471   32.54567   21.38353   26.56328
     176      444        3     0.11471   23.61258   21.38540   26.56313
     177      444        3     0.11471   30.24539    9.89907   26.57217
     178      444        3     0.11471   34.70860   17.65882   26.56941
     179      444        3     0.11471   25.93341   17.54002   15.74675
     180      444        3     0.11471   21.46341   20.13500   23.04638
     181      444        3     0.11471   21.46492   12.47384   22.91844
     182      444        3     0.11471   25.92438   15.06729   30.22558
     183      444        3     0.11471   34.70961   14.95632   19.39863
     184      444        3     0.11471   30.22790   22.71155   19.39741
     185      444        3     0.11471   30.23160   15.07069   30.21976
     186      444        3     0.11471   34.70231   12.47715   22.92043
     187      444        3     0.11471   21.45743   14.95318   19.39649
     188      444        3     0.11471   25.92074   22.71314   19.39511
     189      444        3     0.11471   32.55321   11.22749   19.40246
     190      444        3     0.11471   23.62085   11.22876   19.40384
     191      444        3     0.11471   28.07527   18.79881   30.23110
     192      444        3     0.11471   28.07296   23.97984   22.90389
     193      444        4    -0.17002   26.86163   23.35389   21.22994
     194      444        4    -0.17002   33.56759   11.73136   21.24143
     195      444        4    -0.17002   22.60021   13.12619   19.25859
     196      444        4    -0.17002   29.28863   17.01327   30.20490
     197      444        4    -0.17002   21.38773   13.82798   21.23806
     198      444        4    -0.17002   34.77831   13.83143   21.24020
     199      444        4    -0.17002   28.07822   14.91294   30.20413
     200      444        4    -0.17002   28.07451   22.64213   19.25537
     201      444        4    -0.17002   26.86416   17.01156   30.20796
     202      444        4    -0.17002   33.56999   13.12758   19.25951
     203      444        4    -0.17002   29.28567   23.35230   21.23147
     204      444        4    -0.17002   22.60340   11.72992   21.24097
     205      444        4    -0.17002   22.59842   20.88125   24.72508
     206      444        5    -0.17002   29.30487    9.25852   24.73688
     207      444        4    -0.17002   33.56592   19.48599   26.70777
     208      444        4    -0.17002   26.87774   15.59835   15.76192
     209      444        4    -0.17002   33.56278   20.88273   24.72569
     210      444        5    -0.17002   26.88079    9.26025   24.73473
     211      444        4    -0.17002   29.30221   15.60146   15.75901
     212      444        4    -0.17002   22.59616   19.48558   26.70731
     213      444        4    -0.17002   28.08695   17.69940   15.76284
     214      444        6    -0.17002   28.09162    9.97021   26.71129
     215      444        4    -0.17002   21.38753   18.78119   24.72692
     216      444        4    -0.17002   34.77831   18.78457   24.72814
     217      444        4     0.69241   33.19903   19.27608   28.14254
     218      444        4     0.69241   25.58606   14.84968   15.68393
     219      444        4     0.69241   30.59433    8.92958   24.05581
     220      444        4     0.69241   22.96167   22.16339   24.04753
     221      444        4     0.69241   28.08425   19.19239   15.68347
     222      444        4     0.69241   28.09009   10.39644   28.14422
     223      444        4     0.69241   35.70316   17.82390   24.04968
     224      444        4     0.69241   20.46330   17.82068   24.04968
     225      444        4     0.69241   25.58912    8.93457   24.05703
     226      444        4     0.69241   33.19466   22.16392   24.04784
     227      444        4     0.69241   30.59518   14.85449   15.67979
     228      444        4     0.69241   22.96030   19.27682   28.14254
     229      444        4     0.69241   22.96692   13.33619   17.82382
     230      444        4     0.69241   30.58041   17.76178   30.28274
     231      444        4     0.69241   33.20453   10.44900   21.91867
     232      444        4     0.69241   25.56948   23.68127   21.90657
     233      444        4     0.69241   25.57167   17.75929   30.28718
     234      444        4     0.69241   33.20338   13.33503   17.81968
     235      444        4     0.69241   22.97168   10.44895   21.91928
     236      444        4     0.69241   30.57747   23.67810   21.90917
     237      444        4     0.69241   35.70284   14.79171   21.91760
     238      444        4     0.69241   20.46227   14.78839   21.91530
     239      444        4     0.69241   28.08039   13.41987   30.28320
     240      444        4     0.69241   28.07587   22.21585   17.82244
     241      444        4     0.03416   28.07342   23.59000   21.88879
     242      444        4     0.03416   33.16385   11.96339   19.92158
     243      444        4     0.03416   23.00779   11.96289   19.92143
     244      444        4     0.03416   28.07601   17.71167   30.20720
     245      444        4     0.03416   21.79104   14.05893   19.91775
     246      444        4     0.03416   34.37282   12.66657   21.90136
     247      444        4     0.03416   29.28962   15.61388   30.20153
     248      444        4     0.03416   26.86225   22.87791   19.91392
     249      444        4     0.03416   26.86553   15.61200   30.20475
     250      444        4     0.03416   34.37641   14.06176   19.91959
     251      444        4     0.03416   29.28609   22.87690   19.91545
     252      444        4     0.03416   21.79492   12.66366   21.89967
     253      444        4     0.03416   21.79293   19.94590   24.06546
     254      444        5     0.03416   29.30406    9.73437   26.05305
     255      444        4     0.03416   34.37503   18.55332   26.04846
     256      444        4     0.03416   26.87599   16.99777   15.76529
     257      444        4     0.03416   33.15853   20.64951   26.04524
     258      444        5     0.03416   28.09327    9.02262   24.07787
     259      444        4     0.03416   28.09083   14.90061   15.75977
     260      444        4     0.03416   23.00215   20.64960   26.04493
     261      444        4     0.03416   29.29996   17.00099   15.76222
     262      444        6     0.03416   26.88003    9.73547   26.05075
     263      444        4     0.03416   21.78956   18.55129   26.04769
     264      444        4     0.03416   34.37107   19.94900   24.06653
     265      444        7    -0.56964   33.64074   18.21561   28.70379
     266      444        7    -0.56964   24.51482   15.54647   15.63781
     267      444        7    -0.56964   31.66739    9.12159   24.73335
     268      444        7    -0.56964   22.51854   22.33635   22.86068
     269      444        8    -0.56964   29.22339   19.77135   15.63873
     270      444        8    -0.56964   26.94932   10.54513   28.70225
     271      444        7    -0.56964   36.07331   18.11657   22.86221
     272      444        7    -0.56964   20.09387   16.79963   24.72477
     273      444        7    -0.56964   25.66140    8.46618   22.86941
     274      444        7    -0.56964   32.49349   22.99429   24.72156
     275      444        8    -0.56964   30.52357   13.57857   15.63566
     276      444        8    -0.56964   23.65968   20.18994   28.70118
     277      444        7    -0.56964   23.66868   12.42427   17.26625
     278      444        7    -0.56964   30.50778   19.03756   30.32579
     279      444        7    -0.56964   32.50599    9.61658   21.24495
     280      444        7    -0.56964   25.64144   24.15121   23.09357
     281      444        8    -0.56964   24.50102   17.06197   30.33253
     282      444        8    -0.56964   33.64858   14.39729   17.26380
     283      444        7    -0.56964   22.53051   10.27499   23.10660
     284      444        7    -0.56964   31.64792   23.48842   21.23622
     285      444        7    -0.56964   36.07227   14.49912   23.10614
     286      444        7    -0.56964   20.09259   15.80956   21.24036
     287      444        8    -0.56964   29.22151   12.84472   30.32901
     288      444        8    -0.56964   26.93579   22.06356   17.26196
     289      444        7    -0.56964   22.52498   14.39661   17.26257
     290      444        7    -0.56964   31.65141   17.06493   30.32855
     291      444        7    -0.56964   24.49924   23.49108   21.23346
     292      444        7    -0.56964   33.64714   10.27548   23.10430
     293      444        8    -0.56964   26.94126   12.84114   30.32855
     294      444        8    -0.56964   29.21663   22.06765   17.26425
     295      444        7    -0.56964   20.09228   14.49593   23.10277
     296      444        7    -0.56964   36.07207   15.81286   21.24250
     297      444        7    -0.56964   30.50519   24.14672   23.09664
     298      444        7    -0.56964   23.67276    9.61850   21.24557
     299      444        8    -0.56964   25.64359   19.03518   30.33100
     300      444        8    -0.56964   32.50654   12.42378   17.26548
     301      444        7    -0.56964   32.49748   20.18819   28.70011
     302      444        7    -0.56964   25.65865   13.57393   15.64026
     303      444        7    -0.56964   23.66007   22.99586   24.72125
     304      444        7    -0.56964   30.52516    8.46107   22.87339
     305      444        8    -0.56964   31.66563   15.55206   15.63444
     306      444        8    -0.56964   22.51817   18.21610   28.70302
     307      444        7    -0.56964   33.63596   22.33807   22.86052
     308      444        7    -0.56964   24.51872    9.12404   24.73014
     309      444        7    -0.56964   20.09408   18.11305   22.86098
     310      444        7    -0.56964   36.07345   16.80305   24.72569
     311      444        8    -0.56964   26.94311   19.76740   15.63704
     312      444        8    -0.56964   29.22956   10.54791   28.70409
     313      444        1     0.93605   24.01671   18.63936    6.65902
     314      444        2     0.93605   23.99991   30.91415   15.32156
     315      444        1     0.93605   32.13793   35.61504    8.66331
     316      444        2     0.93605  107.94952   67.47045  124.10958
     317      444        1     0.93605   24.01422   23.34064    0.00199
     318      444        1     0.93605   32.15760   18.63754    6.65902
     319      444        1     0.93605   32.13947   30.91263   15.31911