Created on Tue Feb 06 14:40:44 2018 

        1728 atoms
        1952 bonds
        3376 angles
        3776 dihedrals
        2592 impropers

           5 atom types
           7 bond types
          13 angle types
           4 dihedral types
           1 improper types
           0.000000  25.544000 xlo xhi
           0.000000  30.200000 ylo yhi
           0.000000  38.889957 zlo zhi
           0.003690  -0.019005  -0.054298 xy xz yz

Masses

    1   112.411000000 # Cd3+2
    2     1.007940000 # H_
    3    12.010700000 # C_R
    4    14.006700000 # N_R
    5    15.999400000 # O_R

Bond Coeffs

    1      147.192711        2.045725  # Cd3+2 O_R
    2      152.700732        2.089900  # Cd3+2 N_R
    3      357.440381        1.081418  # H_ C_R
    4      462.655054        1.379256  # C_R C_R
    5      663.718927        1.345073  # C_R N_R
    6      391.669513        1.458000  # C_R C_R
    7      646.680887        1.311940  # C_R O_R

Angle Coeffs

    1                      fourier       30.023701        0.343737        0.374972        0.281246 # O_R Cd3+2 O_R
    2                      fourier       31.469575        0.343737        0.374972        0.281246 # O_R Cd3+2 N_R
    3                      fourier       33.010492        0.343737        0.374972        0.281246 # N_R Cd3+2 N_R
    4              cosine/periodic       76.817955              -1               3 # H_ C_R C_R
    5              cosine/periodic      109.704024              -1               3 # H_ C_R N_R
    6              cosine/periodic      165.695700              -1               3 # C_R C_R N_R
    7              cosine/periodic      117.010657              -1               3 # C_R C_R C_R
    8              cosine/periodic      101.626578              -1               3 # C_R C_R C_R
    9              cosine/periodic      217.450257              -1               3 # O_R C_R O_R
   10              cosine/periodic      137.761490              -1               3 # O_R C_R C_R
   11              cosine/periodic       33.294741              -1               3 # C_R N_R Cd3+2
   12              cosine/periodic      132.654363              -1               3 # C_R N_R C_R
   13              cosine/periodic       45.673393              -1               3 # Cd3+2 O_R C_R

Dihedral Coeffs

    1        1.497136              -1               2 # H_ C_R C_R H_
    2        0.555556              -1               2 # C_R C_R C_R O_R
    3        2.245703              -1               2 # C_R C_R O_R Cd3+2
    4        3.368555              -1               2 # O_R C_R O_R Cd3+2

Improper Coeffs

    1        2.000000        1.000000       -1.000000        0.000000               0 # H_ C_R C_R N_R

Pair Coeffs

    1        0.228000        2.537280 # Cd3+2 Cd3+2
    2        0.044000        2.571134 # H_ H_
    3        0.105000        3.430851 # C_R C_R
    4        0.069000        3.260689 # N_R N_R
    5        0.060000        3.118146 # O_R O_R

Atoms

       1      444        1     0.93073    8.67796   11.58757    6.40809
       2      444        1     0.93073    4.09231    4.03849    3.31498
       3      444        1     0.93073   10.46697    3.48471   16.11930
       4      444        1     0.93073    2.29381   11.03501   13.04836
       5      444        1     0.93073    4.08587    3.48590   13.03669
       6      444        1     0.93073    8.67160   11.03501   16.12980
       7      444        1     0.93073    2.29698   11.58873    3.32509
       8      444        1     0.93073   10.47005    4.03844    6.39623
       9      444        2     0.10534    4.01069    0.77881    3.01203
      10      444        2     0.10534    5.39682   13.87277    3.60568
      11      444        2     0.10534    7.91109    1.37623    5.94861
      12      444        2     0.10534    6.45632    3.30164    5.22953
      13      444        2     0.10534    4.81338    2.30557    0.69827
      14      444        2     0.10534    6.42049    2.24986   18.20089
      15      444        2     0.10534    7.56831    6.25154   19.27814
      16      444        2     0.10534    5.86998    6.17860    1.69171
      17      444        2     0.10534    8.75949    8.32739    6.70852
      18      444        2     0.10534    7.37221    6.32232    6.11661
      19      444        2     0.10534    4.85769    8.92810    3.77446
      20      444        2     0.10534    6.31482   10.85218    4.49218
      21      444        2     0.10534    7.95695    9.84605    9.01741
      22      444        2     0.10534    6.34031    9.80981   10.96016
      23      444        2     0.10534    5.18900   13.81393    9.89594
      24      444        2     0.10534    6.89670   13.72115    8.02825
      25      444        2     0.10534    1.57525   12.77064   10.43768
      26      444        2     0.10534   12.72333   12.81119    8.50115
      27      444        2     0.10534   11.57711    8.80437    9.55915
      28      444        2     0.10534   -0.00449    8.89480   11.42490
      29      444        2     0.10534    2.37768   14.29325   12.74093
      30      444        2     0.10534    0.98947    1.20101   13.32370
      31      444        2     0.10534   11.23515   13.70335   15.66099
      32      444        2     0.10534   12.69432   11.77633   14.95397
      33      444        2     0.10534   11.18723    5.21362   18.73621
      34      444        2     0.10534    0.00004    5.27279    1.22931
      35      444        2     0.10534    1.18858    1.26788    0.15887
      36      444        2     0.10534   12.24259    1.33917   17.73829
      37      444        2     0.10534   10.38380    6.74294   16.42790
      38      444        2     0.10534   11.76863    8.75149   15.84260
      39      444        2     0.10534    1.52381    6.15412   13.50415
      40      444        2     0.10534   -0.00643    4.22652   14.21233
      41      444        2     0.10534    8.75331   14.29470   16.43256
      42      444        2     0.10534    7.36719    1.20074   15.83910
      43      444        2     0.10534    4.85292   13.69736   13.49618
      44      444        2     0.10534    6.30771   11.77192   14.21506
      45      444        2     0.10534    7.95010   12.76822   18.74613
      46      444        2     0.10534    6.34307   12.82389    1.24351
      47      444        2     0.10534    5.19610    8.82178    0.16703
      48      444        2     0.10534    6.89434    8.89481   17.74568
      49      444        2     0.10534    4.00452    6.74619   12.73627
      50      444        2     0.10534    5.39186    8.75117   13.32817
      51      444        2     0.10534    7.90626    6.14520   15.67013
      52      444        2     0.10534    6.44907    4.22120   14.95241
      53      444        2     0.10534    4.80677    5.22736   10.42698
      54      444        2     0.10534    6.42343    5.26352    8.48423
      55      444        2     0.10534    7.57529    1.25975    9.54923
      56      444        2     0.10534    5.86754    1.35254   11.41673
      57      444        2     0.10534   11.18888    2.30278    9.00653
      58      444        2     0.10534   -0.00507    2.26212   10.94286
      59      444        2     0.10534    1.18649    6.26932    9.88505
      60      444        2     0.10534   12.24815    6.17896    8.01989
      61      444        2     0.10534   10.38627    0.78026    6.70385
      62      444        2     0.10534   11.77449   13.87246    6.12070
      63      444        2     0.10534    1.52883    1.36999    3.78380
      64      444        2     0.10534   -0.00179    3.29705    4.49062
      65      444        2     0.10534    1.57726    9.86026    0.70799
      66      444        2     0.10534   12.71814    9.80107   18.21489
      67      444        2     0.10534   11.57475   13.80538   19.28553
      68      444        2     0.10534    0.00084   13.73416    1.70688
      69      444        2     0.10534    2.38017    8.33052    3.01669
      70      444        2     0.10534    0.99538    6.32195    3.60199
      71      444        2     0.10534   11.23992    8.91934    5.94025
      72      444        2     0.10534   12.69737   10.84692    5.23128
      73      444        3     0.16231    4.89656    0.87276    3.63952
      74      444        3    -0.15510    5.66931   14.86144    3.97533
      75      444        3    -0.00035    6.77913   15.03454    4.81088
      76      444        3    -0.15510    7.07012    1.22122    5.27503
      77      444        3     0.16231    6.26498    2.28496    4.88769
      78      444        3     0.61070    7.60414   13.86243    5.27853
      79      444        3     0.16231    5.44873    3.16110    0.46862
      80      444        3    -0.15510    6.32725    3.12344   18.84374
      81      444        3    -0.00035    7.13156    4.24519   18.61993
      82      444        3    -0.15510    6.95831    5.36427   19.44070
      83      444        3     0.16231    6.04494    5.33396    1.03272
      84      444        3     0.61070    8.23507    4.23028   17.59382
      85      444        3     0.16231    7.87327    8.42205    6.08161
      86      444        3    -0.15510    7.10080    7.31152    5.74696
      87      444        3    -0.00035    5.99082    7.48555    4.91180
      88      444        3    -0.15510    5.69884    8.77239    4.44765
      89      444        3     0.16231    6.50537    9.83537    4.83402
      90      444        3     0.61070    5.16459    6.31387    4.44454
      91      444        3     0.16231    7.32092   10.70029    9.24920
      92      444        3    -0.15510    6.43283   10.68554   10.32023
      93      444        3    -0.00035    5.62775   11.80595   10.54754
      94      444        3    -0.15510    5.79998   12.92779    9.72988
      95      444        3     0.16231    6.72279   12.87447    8.69268
      96      444        3     0.61070    4.52442   11.78753   11.57365
      97      444        3     0.16231    0.93816   11.91707   10.20647
      98      444        3    -0.15510    0.04646   11.93398    9.13856
      99      444        3    -0.00035   12.01347   10.81359    8.91066
     100      444        3    -0.15510   12.18801    9.69044    9.72618
     101      444        3     0.16231    0.34126    9.74235   10.76163
     102      444        3     0.61070   10.90818   10.83366    7.88630
     103      444        3     0.16231    1.48962   14.20110   13.36551
     104      444        3    -0.15510    0.71583   -0.01912   13.69549
     105      444        3    -0.00035   12.37370   -0.02028   14.52559
     106      444        3    -0.15510   12.07990   13.85680   14.99169
     107      444        3     0.16231    0.11526   12.79224   14.61115
     108      444        3     0.61070   11.54703    1.21524   14.98663
     109      444        3     0.16231   11.82288    4.35838   18.96527
     110      444        3    -0.15510   12.72290    4.39767    0.58899
     111      444        3    -0.00035    0.75444    3.27564    0.81416
     112      444        3    -0.15510    0.56935    2.12817   19.43915
     113      444        3     0.16231   12.41735    2.18464   18.40389
     114      444        3     0.61070    1.85935    3.29100    1.83930
     115      444        3     0.16231   11.27145    6.65093   15.80255
     116      444        3    -0.15510   12.04229    7.76346   15.47140
     117      444        3    -0.00035   -0.00622    7.59247   14.64012
     118      444        3    -0.15510    0.67955    6.30735   14.17403
     119      444        3     0.16231   12.64533    5.24242   14.55593
     120      444        3     0.61070    1.20985    8.76646   14.17889
     121      444        3     0.16231    7.86744   14.20076   15.80527
     122      444        3    -0.15510    7.09481   -0.02160   15.46926
     123      444        3    -0.00035    5.98470   -0.02043   14.63410
     124      444        3    -0.15510    5.69406   13.85239   14.16936
     125      444        3     0.16231    6.49903   12.78858   14.55690
     126      444        3     0.61070    5.15990    1.21111   14.16567
     127      444        3     0.16231    7.31496   11.91256   18.97519
     128      444        3    -0.15510    6.43635   11.95025    0.60085
     129      444        3    -0.00035    5.63254   10.82825    0.82447
     130      444        3    -0.15510    5.80578    9.70921    0.00000
     131      444        3     0.16231    6.71922    9.73950   18.41051
     132      444        3     0.61070    4.52891   10.84314    1.85097
     133      444        3     0.16231    4.89072    6.65147   13.36298
     134      444        3    -0.15510    5.66322    7.76194   13.69782
     135      444        3    -0.00035    6.77317    7.58786   14.53298
     136      444        3    -0.15510    7.06512    6.30098   14.99694
     137      444        3     0.16231    6.25856    5.23802   14.61057
     138      444        3     0.61070    7.59940    8.75945   15.00044
     139      444        3     0.16231    5.44291    4.37316   10.19500
     140      444        3    -0.15510    6.33108    4.38790    9.12436
     141      444        3    -0.00035    7.13624    3.26752    8.89724
     142      444        3    -0.15510    6.96423    2.14583    9.71510
     143      444        3     0.16231    6.04133    2.19916   10.75230
     144      444        3     0.61070    8.23962    3.28590    7.87113
     145      444        3     0.16231   11.82586    3.15640    9.23773
     146      444        3    -0.15510   12.71769    3.13941   10.30389
     147      444        3    -0.00035    0.75046    4.25992   10.53373
     148      444        3    -0.15510    0.57576    5.38317    9.71666
     149      444        3     0.16231   12.42242    5.33133    8.68296
     150      444        3     0.61070    1.85575    4.23971   11.55810
     151      444        3     0.16231   11.27435    0.87237    6.07928
     152      444        3    -0.15510   12.04809   14.86016    5.74930
     153      444        3    -0.00035   -0.00057   15.03140    4.91919
     154      444        3    -0.15510    0.68406    1.21657    4.45309
     155      444        3     0.16231   12.64874    2.28117    4.83344
     156      444        3     0.61070    1.21690   13.85811    4.45815
     157      444        3     0.16231    0.94138   10.71538    0.47912
     158      444        3    -0.15510    0.04124   10.67603   18.85541
     159      444        3    -0.00035   12.00957   11.79798   18.63023
     160      444        3    -0.15510   12.19414   12.94518    0.00486
     161      444        3     0.16231    0.34628   12.88880    1.04089
     162      444        3     0.61070   10.90447   11.78247   17.60529
     163      444        3     0.16231    1.49249    8.42251    3.64204
     164      444        3    -0.15510    0.72171    7.30995    3.97339
     165      444        3    -0.00035   12.37978    7.48098    4.80388
     166      444        3    -0.15510   12.08431    8.76609    5.27037
     167      444        3     0.16231    0.11847    9.83104    4.88847
     168      444        3     0.61070   11.55400    6.30694    5.26551
     169      444        4    -0.35705    5.19056    2.11741    4.08072
     170      444        4    -0.35705    5.31521    4.22603    1.28901
     171      444        4    -0.35705    7.58024    9.66685    5.64021
     172      444        4    -0.35705    7.45341   11.76793    8.43309
     173      444        4    -0.35705    1.07272   10.84826   11.02103
     174      444        4    -0.35705    1.19376   12.95781   13.80924
     175      444        4    -0.35705   11.68760    3.29231   18.14722
     176      444        4    -0.35705   11.56745    5.40764   15.35881
     177      444        4    -0.35705    7.57351   12.95614   15.36387
     178      444        4    -0.35705    7.44866   10.84757   18.15578
     179      444        4    -0.35705    5.18369    5.40662   13.80438
     180      444        4    -0.35705    5.31059    3.30564   11.01169
     181      444        4    -0.35705   11.69112    4.22534    8.42337
     182      444        4    -0.35705   11.57018    2.11563    5.63535
     183      444        4    -0.35705    1.07631   11.78125    1.29756
     184      444        4    -0.35705    1.19643    9.66582    4.08578
     185      444        5    -0.59963    7.43305   12.73473    4.70705
     186      444        5    -0.56974    8.39091   14.03592    6.26109
     187      444        5    -0.59963    8.29547    3.22075   16.80143
     188      444        5    -0.56974    9.07412    5.17234   17.60509
     189      444        5    -0.59963    5.33628    5.18548    5.01467
     190      444        5    -0.56974    4.37704    6.48859    3.46296
     191      444        5    -0.59963    4.46508   10.77637   12.36428
     192      444        5    -0.56974    3.68479   12.72899   11.56393
     193      444        5    -0.59963   10.83739   11.85559    7.11064
     194      444        5    -0.56974   10.07940    9.88321    7.88183
     195      444        5    -0.59963   11.74274    2.34768   14.43323
     196      444        5    -0.56974   10.73424    1.03769   15.94702
     197      444        5    -0.59963    1.93053    4.30934    2.61963
     198      444        5    -0.56974    2.68834    2.34064    1.83755
     199      444        5    -0.59963    1.01732    9.89770   14.73540
     200      444        5    -0.56974    2.01976    8.59023   13.21481
     201      444        5    -0.59963    5.33091    2.33878   14.73774
     202      444        5    -0.56974    4.37292    1.03757   13.18389
     203      444        5    -0.59963    4.46858   11.85259    2.64354
     204      444        5    -0.56974    3.68995    9.90099    1.83988
     205      444        5    -0.59963    7.42771    9.88791   14.43031
     206      444        5    -0.56974    8.38692    8.58464   15.98202
     207      444        5    -0.59963    8.29888    4.29695    7.08031
     208      444        5    -0.56974    9.07919    2.34440    7.88047
     209      444        5    -0.59963    1.92670    3.21747   12.33317
     210      444        5    -0.56974    2.68428    5.19035   11.56198
     211      444        5    -0.59963    1.02129   12.72576    5.01175
     212      444        5    -0.56974    2.02960   14.03555    3.49757
     213      444        5    -0.59963   10.83360   10.76445   16.82457
     214      444        5    -0.56974   10.07524   12.73264   17.60568
     215      444        5    -0.59963   11.74680    5.17569    4.70880
     216      444        5    -0.56974   10.74368    6.48317    6.22842
     217      444        1     0.93073    8.66845   11.56042   25.85307
     218      444        1     0.93073    4.08281    4.01134   22.75996
     219      444        1     0.93073   10.45747    3.45756   35.56428
     220      444        1     0.93073    2.28430   11.00786   32.49334
     221      444        1     0.93073    4.07637    3.45875   32.48167
     222      444        1     0.93073    8.66209   11.00786   35.57478
     223      444        1     0.93073    2.28747   11.56158   22.77007
     224      444        1     0.93073   10.46055    4.01129   25.84121
     225      444        2     0.10534    4.00119    0.75166   22.45701
     226      444        2     0.10534    5.38732   13.84562   23.05066
     227      444        2     0.10534    7.90158    1.34908   25.39359
     228      444        2     0.10534    6.44681    3.27449   24.67451
     229      444        2     0.10534    4.80387    2.27842   20.14325
     230      444        2     0.10534    6.41099    2.22271   37.64587
     231      444        2     0.10534    7.55881    6.22439   38.72312
     232      444        2     0.10534    5.86048    6.15145   21.13669
     233      444        2     0.10534    8.74998    8.30024   26.15350
     234      444        2     0.10534    7.36271    6.29517   25.56159
     235      444        2     0.10534    4.84819    8.90095   23.21944
     236      444        2     0.10534    6.30532   10.82503   23.93716
     237      444        2     0.10534    7.94744    9.81890   28.46239
     238      444        2     0.10534    6.33081    9.78267   30.40514
     239      444        2     0.10534    5.17950   13.78678   29.34092
     240      444        2     0.10534    6.88720   13.69400   27.47323
     241      444        2     0.10534    1.56574   12.74349   29.88265
     242      444        2     0.10534   12.71383   12.78404   27.94613
     243      444        2     0.10534   11.56761    8.77722   29.00413
     244      444        2     0.10534   -0.01400    8.86765   30.86988
     245      444        2     0.10534    2.36818   14.26610   32.18591
     246      444        2     0.10534    0.97997    1.17386   32.76868
     247      444        2     0.10534   11.22564   13.67621   35.10596
     248      444        2     0.10534   12.68481   11.74918   34.39895
     249      444        2     0.10534   11.17772    5.18647   38.18119
     250      444        2     0.10534   -0.00946    5.24564   20.67429
     251      444        2     0.10534    1.17907    1.24073   19.60384
     252      444        2     0.10534   12.23309    1.31202   37.18327
     253      444        2     0.10534   10.37430    6.71579   35.87287
     254      444        2     0.10534   11.75913    8.72434   35.28758
     255      444        2     0.10534    1.51430    6.12697   32.94913
     256      444        2     0.10534   -0.01593    4.19937   33.65731
     257      444        2     0.10534    8.74380   14.26755   35.87754
     258      444        2     0.10534    7.35769    1.17359   35.28408
     259      444        2     0.10534    4.84342   13.67021   32.94116
     260      444        2     0.10534    6.29820   11.74477   33.66004
     261      444        2     0.10534    7.94060   12.74107   38.19110
     262      444        2     0.10534    6.33357   12.79674   20.68849
     263      444        2     0.10534    5.18659    8.79463   19.61201
     264      444        2     0.10534    6.88484    8.86766   37.19066
     265      444        2     0.10534    3.99502    6.71904   32.18125
     266      444        2     0.10534    5.38236    8.72402   32.77315
     267      444        2     0.10534    7.89675    6.11805   35.11510
     268      444        2     0.10534    6.43957    4.19405   34.39739
     269      444        2     0.10534    4.79727    5.20021   29.87196
     270      444        2     0.10534    6.41393    5.23637   27.92921
     271      444        2     0.10534    7.56579    1.23260   28.99421
     272      444        2     0.10534    5.85803    1.32539   30.86171
     273      444        2     0.10534   11.17938    2.27563   28.45150
     274      444        2     0.10534   -0.01457    2.23497   30.38783
     275      444        2     0.10534    1.17699    6.24217   29.33003
     276      444        2     0.10534   12.23865    6.15181   27.46487
     277      444        2     0.10534   10.37676    0.75312   26.14883
     278      444        2     0.10534   11.76499   13.84531   25.56567
     279      444        2     0.10534    1.51932    1.34285   23.22878
     280      444        2     0.10534   -0.01129    3.26990   23.93560
     281      444        2     0.10534    1.56775    9.83311   20.15297
     282      444        2     0.10534   12.70864    9.77393   37.65987
     283      444        2     0.10534   11.56524   13.77823   38.73051
     284      444        2     0.10534   -0.00866   13.70701   21.15186
     285      444        2     0.10534    2.37067    8.30337   22.46167
     286      444        2     0.10534    0.98588    6.29480   23.04697
     287      444        2     0.10534   11.23042    8.89219   25.38523
     288      444        2     0.10534   12.68787   10.81977   24.67626
     289      444        3     0.16231    4.88705    0.84561   23.08450
     290      444        3    -0.15510    5.65981   14.83429   23.42031
     291      444        3    -0.00035    6.76963   15.00739   24.25586
     292      444        3    -0.15510    7.06062    1.19407   24.72001
     293      444        3     0.16231    6.25548    2.25781   24.33267
     294      444        3     0.61070    7.59464   13.83528   24.72351
     295      444        3     0.16231    5.43923    3.13396   19.91360
     296      444        3    -0.15510    6.31775    3.09630   38.28872
     297      444        3    -0.00035    7.12206    4.21804   38.06491
     298      444        3    -0.15510    6.94881    5.33712   38.88568
     299      444        3     0.16231    6.03544    5.30681   20.47770
     300      444        3     0.61070    8.22557    4.20313   37.03880
     301      444        3     0.16231    7.86377    8.39490   25.52659
     302      444        3    -0.15510    7.09130    7.28437   25.19194
     303      444        3    -0.00035    5.98132    7.45840   24.35678
     304      444        3    -0.15510    5.68934    8.74524   23.89263
     305      444        3     0.16231    6.49587    9.80822   24.27900
     306      444        3     0.61070    5.15509    6.28672   23.88952
     307      444        3     0.16231    7.31142   10.67315   28.69418
     308      444        3    -0.15510    6.42333   10.65839   29.76521
     309      444        3    -0.00035    5.61824   11.77880   29.99252
     310      444        3    -0.15510    5.79047   12.90065   29.17486
     311      444        3     0.16231    6.71329   12.84733   28.13766
     312      444        3     0.61070    4.51492   11.76038   31.01863
     313      444        3     0.16231    0.92866   11.88993   29.65145
     314      444        3    -0.15510    0.03696   11.90683   28.58354
     315      444        3    -0.00035   12.00396   10.78645   28.35564
     316      444        3    -0.15510   12.17851    9.66329   29.17116
     317      444        3     0.16231    0.33176    9.71520   30.20661
     318      444        3     0.61070   10.89868   10.80651   27.33128
     319      444        3     0.16231    1.48012   14.17395   32.81048
     320      444        3    -0.15510    0.70633   -0.04627   33.14047
     321      444        3    -0.00035   12.36419   -0.04743   33.97057
     322      444        3    -0.15510   12.07040   13.82965   34.43667
     323      444        3     0.16231    0.10576   12.76509   34.05613
     324      444        3     0.61070   11.53753    1.18809   34.43161
     325      444        3     0.16231   11.81338    4.33123   38.41025
     326      444        3    -0.15510   12.71340    4.37052   20.03397
     327      444        3    -0.00035    0.74494    3.24849   20.25914
     328      444        3    -0.15510    0.55985    2.10102   38.88412
     329      444        3     0.16231   12.40784    2.15749   37.84887
     330      444        3     0.61070    1.84985    3.26385   21.28428
     331      444        3     0.16231   11.26194    6.62378   35.24752
     332      444        3    -0.15510   12.03279    7.73631   34.91638
     333      444        3    -0.00035   -0.01573    7.56532   34.08510
     334      444        3    -0.15510    0.67005    6.28020   33.61901
     335      444        3     0.16231   12.63583    5.21527   34.00091
     336      444        3     0.61070    1.20034    8.73931   33.62387
     337      444        3     0.16231    7.85794   14.17361   35.25025
     338      444        3    -0.15510    7.08531   -0.04875   34.91424
     339      444        3    -0.00035    5.97520   -0.04758   34.07908
     340      444        3    -0.15510    5.68456   13.82524   33.61434
     341      444        3     0.16231    6.48952   12.76143   34.00188
     342      444        3     0.61070    5.15040    1.18396   33.61065
     343      444        3     0.16231    7.30546   11.88541   38.42017
     344      444        3    -0.15510    6.42685   11.92310   20.04583
     345      444        3    -0.00035    5.62304   10.80110   20.26945
     346      444        3    -0.15510    5.79628    9.68206   19.44498
     347      444        3     0.16231    6.70972    9.71235   37.85548
     348      444        3     0.61070    4.51941   10.81599   21.29595
     349      444        3     0.16231    4.88122    6.62432   32.80796
     350      444        3    -0.15510    5.65372    7.73479   33.14280
     351      444        3    -0.00035    6.76366    7.56071   33.97796
     352      444        3    -0.15510    7.05562    6.27383   34.44192
     353      444        3     0.16231    6.24906    5.21088   34.05555
     354      444        3     0.61070    7.58990    8.73230   34.44542
     355      444        3     0.16231    5.43341    4.34601   29.63998
     356      444        3    -0.15510    6.32158    4.36075   28.56934
     357      444        3    -0.00035    7.12674    3.24037   28.34222
     358      444        3    -0.15510    6.95472    2.11868   29.16008
     359      444        3     0.16231    6.03183    2.17201   30.19727
     360      444        3     0.61070    8.23012    3.25875   27.31611
     361      444        3     0.16231   11.81636    3.12925   28.68270
     362      444        3    -0.15510   12.70819    3.11227   29.74887
     363      444        3    -0.00035    0.74095    4.23277   29.97871
     364      444        3    -0.15510    0.56626    5.35602   29.16163
     365      444        3     0.16231   12.41291    5.30418   28.12794
     366      444        3     0.61070    1.84625    4.21256   31.00307
     367      444        3     0.16231   11.26485    0.84522   25.52426
     368      444        3    -0.15510   12.03858   14.83301   25.19428
     369      444        3    -0.00035   -0.01007   15.00425   24.36417
     370      444        3    -0.15510    0.67456    1.18942   23.89807
     371      444        3     0.16231   12.63923    2.25402   24.27842
     372      444        3     0.61070    1.20740   13.83096   23.90313
     373      444        3     0.16231    0.93187   10.68823   19.92410
     374      444        3    -0.15510    0.03174   10.64888   38.30039
     375      444        3    -0.00035   12.00006   11.77083   38.07521