Created on Tue Feb 06 14:38:43 2018 

        3264 atoms
        3792 bonds
        7152 angles
        9984 dihedrals
        3744 impropers

           7 atom types
          11 bond types
          19 angle types
           5 dihedral types
           1 improper types
           0.000000  37.188000 xlo xhi
           0.000000  40.183181 ylo yhi
           0.000000  39.252431 zlo zhi
          -3.144138  -3.313005  -9.190930 xy xz yz

Masses

    1    65.380000000 # Zn4+2
    2     1.007940000 # H_
    3    12.010700000 # C_3
    4    12.010700000 # C_R
    5    14.006700000 # N_3
    6    15.999400000 # O_2
    7    15.999400000 # O_R

Bond Coeffs

    1      104.409475        2.122938  # Zn4+2 O_2
    2      101.329368        2.217526  # Zn4+2 N_3
    3      127.647979        1.985391  # Zn4+2 O_R
    4      132.245452        2.029178  # Zn4+2 N_3
    5      331.069389        1.109401  # H_ C_3
    6      357.440381        1.081418  # H_ C_R
    7      528.634538        1.451071  # C_3 N_3
    8      714.557442        1.269010  # C_R O_2
    9      391.669513        1.458000  # C_R C_R
   10      462.655054        1.379256  # C_R C_R
   11      646.680887        1.311940  # C_R O_R

Angle Coeffs

    1              cosine/periodic       42.755432               1               4 # O_2 Zn4+2 N_3
    2              cosine/periodic       43.207730               1               4 # O_2 Zn4+2 O_2
    3              cosine/periodic       63.221343               1               4 # O_R Zn4+2 N_3
    4              cosine/periodic       60.397389               1               4 # O_R Zn4+2 O_R
    5                      fourier       61.342703        0.343737        0.374972        0.281246 # H_ C_3 H_
    6                      fourier      105.465539        0.343737        0.374972        0.281246 # H_ C_3 N_3
    7                      fourier      204.567257        0.343737        0.374972        0.281246 # N_3 C_3 N_3
    8              cosine/periodic      256.805977              -1               3 # O_2 C_R O_2
    9              cosine/periodic      148.862838              -1               3 # O_2 C_R C_R
   10              cosine/periodic      117.010657              -1               3 # C_R C_R C_R
   11              cosine/periodic      101.626578              -1               3 # C_R C_R C_R
   12              cosine/periodic       76.817955              -1               3 # C_R C_R H_
   13              cosine/periodic      217.450257              -1               3 # O_R C_R O_R
   14              cosine/periodic      137.761490              -1               3 # O_R C_R C_R
   15                      fourier      123.892715        0.317506        0.313225        0.272502 # C_3 N_3 C_3
   16                      fourier       25.108026        0.317506        0.313225        0.272502 # Zn4+2 N_3 C_3
   17                      fourier       33.211304        0.317506        0.313225        0.272502 # C_3 N_3 Zn4+2
   18              cosine/periodic       28.000941              -1               3 # Zn4+2 O_2 C_R
   19              cosine/periodic       39.831479              -1               3 # Zn4+2 O_R C_R

Dihedral Coeffs

    1        0.040687               1               3 # H_ C_3 N_3 C_3
    2        0.030516               1               3 # H_ C_3 N_3 C_3
    3        2.245703              -1               2 # C_R C_R O_2 Zn4+2
    4        0.555556              -1               2 # O_2 C_R C_R C_R
    5        1.497136              -1               2 # C_R C_R C_R H_

Improper Coeffs

    1        2.000000        1.000000       -1.000000        0.000000               0 # O_2 C_R O_2 C_R

Pair Coeffs

    1        0.124000        2.461553 # Zn4+2 Zn4+2
    2        0.044000        2.571134 # H_ H_
    3        0.105000        3.430851 # C_3 C_3
    4        0.105000        3.430851 # C_R C_R
    5        0.069000        3.260689 # N_3 N_3
    6        0.060000        3.118146 # O_2 O_2
    7        0.060000        3.118146 # O_R O_R

Atoms

       1      444        1     0.89435    8.83925   11.71019    2.23523
       2      444        1     0.89435    6.34640   12.65204    2.94786
       3      444        1     0.91297    9.51431   -0.24030   18.18899
       4      444        1     0.91297   -0.58282    6.62903    1.68393
       5      444        1     0.89435    2.59998   -0.50587   11.94648
       6      444        1     0.89435    0.10448   -0.02261   13.01218
       7      444        1     0.91297    3.37951   17.73290    3.88952
       8      444        1     0.91297    5.59343    0.10668    6.86604
       9      444        2     0.09525    4.85562   13.31947    5.51614
      10      444        2     0.09525    4.00060   11.94360    4.77270
      11      444        2     0.09525    1.95175   15.52725    5.52242
      12      444        2     0.09525    3.67740   15.36913    5.95185
      13      444        2     0.09525    2.53209   15.57239    1.91022
      14      444        2     0.09525    1.28115   15.62961    3.19122
      15      444        2     0.09525    0.80545   13.67927    4.50147
      16      444        2     0.09525    1.67822   12.14899    4.16880
      17      444        2     0.09525    3.31650   12.04917    2.45465
      18      444        2     0.09525    3.69902   13.49479    1.47197
      19      444        2     0.09525    4.85490   15.37896    2.48448
      20      444        2     0.09525    5.36252   15.28998    4.19039
      21      444        2     0.09525   -0.76143   11.15734    3.58080
      22      444        2     0.09525   -0.49862   12.46425    2.39106
      23      444        2     0.09525    9.81258    8.98584    1.27963
      24      444        2     0.09525   10.44648    9.15465    2.93392
      25      444        2     0.09525   11.02686   12.24185    0.14268
      26      444        2     0.09525    8.49765    6.16646   19.29257
      27      444        2     0.09525    1.57114    8.83886    1.97499
      28      444        2     0.09525    0.45178    9.06271    3.33646
      29      444        2     0.09525    1.00064   12.16385    0.57132
      30      444        2     0.09525    1.88722   10.62485    0.37133
      31      444        2     0.09525    9.69443    4.09448   19.04292
      32      444        2     0.09525   -0.94259    4.02837   19.34929
      33      444        2     0.09525    6.65091   16.62628    1.19740
      34      444        2     0.09525    6.17782   19.02368    0.86925
      35      444        2     0.09525    8.46479    1.17163    0.01884
      36      444        2     0.09525    8.87348   14.97351   18.10656
      37      444        2     0.09525    9.39328   12.56939   18.52597
      38      444        2     0.09525    8.73175   10.36768   19.48765
      39      444        2     0.09525    8.84615    7.98823    4.22945
      40      444        2     0.09525    4.32392    6.77936    5.93752
      41      444        2     0.09525    4.76224    9.05452    5.03334
      42      444        2     0.09525    9.64324    5.68492    4.66770
      43      444        2     0.09525    9.23233    3.42369    5.64273
      44      444        2     0.09525    5.15066    4.48517    6.47194
      45      444        2     0.09525    7.46391   15.09128    6.50060
      46      444        2     0.09525    7.34779   16.68797    8.41003
      47      444        2     0.09525   -0.08678   16.52175    8.87792
      48      444        2     0.09525    0.02178   14.84455    7.03129
      49      444        2     0.09525   -1.14815   13.50630    5.27886
      50      444        2     0.09525   10.08949   -2.07633   10.18228
      51      444        2     0.09525    7.72442    7.23289    2.07037
      52      444        2     0.09525    5.25317    7.22334    2.22208
      53      444        2     0.09525    3.05066    6.53402    1.29435
      54      444        2     0.09525    5.91520    0.31110   18.08222
      55      444        2     0.09525    3.70120   -0.45353   17.19276
      56      444        2     0.09525    1.23329   -0.46718   17.35154
      57      444        2     0.09525   -1.38537    2.33063   14.25001
      58      444        2     0.09525   10.15851    1.91687   12.74036
      59      444        2     0.09525    8.09984    1.84886   16.39554
      60      444        2     0.09525    9.82691    2.29860   16.34216
      61      444        2     0.09525    8.67294   -1.68274   15.63130
      62      444        2     0.09525    7.42442   -0.44296   15.97044
      63      444        2     0.09525    6.95772    1.27139   14.36089
      64      444        2     0.09525    7.83616    1.28774   12.79845
      65      444        2     0.09525    9.47005   -0.36436   12.32134
      66      444        2     0.09525    9.84632   -1.64549   13.51108
      67      444        2     0.09525   -1.39861   -1.08583   15.57752
      68      444        2     0.09525   -0.88733    0.59527   15.87486
      69      444        2     0.09525    5.39799    0.92996   11.71037
      70      444        2     0.09525    5.65655   -0.52468   12.71504
      71      444        2     0.09525    3.57698   -0.81497    9.07104
      72      444        2     0.09525    4.21353    0.75558    9.61194
      73      444        2     0.09525    4.78265   -2.66332   11.98769
      74      444        2     0.09525    2.34023   17.30181   10.43722
      75      444        2     0.09525    7.73378   -0.11448    9.09361
      76      444        2     0.09525    6.61601    1.16350    9.61724
      77      444        2     0.09525    7.15232   -2.23238   12.01399
      78      444        2     0.09525    8.04339   -2.08166   10.47216
      79      444        2     0.09525    3.54048   17.52505    8.36548
      80      444        2     0.09525    5.30048   17.83410    8.37215
      81      444        2     0.09525    0.38718   -2.63346   16.47719
      82      444        2     0.09525   -0.10315   -3.48998   18.73322
      83      444        2     0.09525    2.25678   -0.21937    1.10868
      84      444        2     0.09525    2.68027   14.15653   18.76561
      85      444        2     0.09525    3.21523   15.10231   16.51821
      86      444        2     0.09525    2.56536   16.53121   14.58228
      87      444        2     0.09525    2.62615    2.28642    8.79117
      88      444        2     0.09525   10.50728    4.22834    7.97511
      89      444        2     0.09525   10.93322    2.83473    9.99053
      90      444        2     0.09525    3.43542    3.22975    6.64877
      91      444        2     0.09525    3.03431    4.68295    4.65946
      92      444        2     0.09525   11.34459    5.26149    5.86255
      93      444        2     0.09525    1.22054    2.86796   16.22224
      94      444        2     0.09525    1.10495    4.35985   18.21627
      95      444        2     0.09525    6.06759    4.84597   18.16426
      96      444        2     0.09525    6.17469    3.44090   16.10449
      97      444        2     0.09525    5.00434    2.04325   14.39858
      98      444        2     0.09525    3.93272   10.36931    0.29302
      99      444        2     0.09525    1.49753    0.34903    7.55649
     100      444        2     0.09525   11.42195    0.48533    7.59338
     101      444        2     0.09525    9.21957   -0.25265    6.70117
     102      444        2     0.09525   -0.22388   17.50995    4.41276
     103      444        2     0.09525    9.95961   16.82201    3.46246
     104      444        2     0.09525    7.49108   16.97376    3.49111
     105      444        3     0.12571    4.06681   13.03753    4.80646
     106      444        3     0.12571    2.90369   15.06782    5.23176
     107      444        3     0.12571    2.23781   15.18056    2.89271
     108      444        3     0.12571    1.76853   13.24222    4.20668
     109      444        3     0.12571    3.39921   13.14261    2.46917
     110      444        3     0.12571    4.58092   15.00471    3.47678
     111      444        3     0.12571   -0.55121   11.37669    2.52550
     112      444        3     0.12571   10.64076    9.38112    1.87921
     113      444        3     0.12571   10.99003   11.15246    0.26083
     114      444        3     0.12571    0.63479    9.31846    2.28469
     115      444        3     0.12571    0.93863   11.07376    0.69006
     116      444        3     0.12571   -0.22399    9.10810    0.00000
     117      444        4     0.67697    8.12976   14.34675    1.20780
     118      444        4    -0.04283    8.47773   15.66518    0.59330
     119      444        4    -0.08741    7.61456   16.74453    0.70301
     120      444        4    -0.04283    7.97006   18.01571    0.19175
     121      444        4    -0.08741    7.12807   19.15111    0.34837
     122      444        4    -0.08741    7.43377   -4.30356   19.50002
     123      444        4    -0.08741    7.92734   14.84281   18.63215
     124      444        4    -0.08741    8.43369   12.44666   19.03134
     125      444        4    -0.08741    8.07164   11.23010   19.56047
     126      444        4    -0.04283    8.67027   -4.15448   18.81271
     127      444        4     0.67697    9.11816   -2.81545   18.31911
     128      444        4    -0.04283    7.57433   13.57350   19.14518
     129      444        4     0.67697    7.09509   10.00730    3.98530
     130      444        4    -0.04283    6.84324    8.66020    4.58586
     131      444        4    -0.08741    7.86280    7.72143    4.61353
     132      444        4    -0.04283    7.65009    6.41705    5.11204
     133      444        4    -0.04283    6.35000    6.07157    5.61486
     134      444        4    -0.08741    5.31756    7.04990    5.57699
     135      444        4    -0.08741    5.55551    8.30992    5.07495
     136      444        4    -0.08741    8.67763    5.43475    5.11126
     137      444        4    -0.08741    8.44846    4.18060    5.62978
     138      444        4    -0.08741    6.13774    4.76143    6.10650
     139      444        4    -0.04283    7.16491    3.83194    6.13103
     140      444        4     0.67697    6.94557    2.44214    6.64956
     141      444        4     0.67697    8.63755   13.46211    4.66986
     142      444        4    -0.04283    9.28671   14.23264    5.78345
     143      444        4    -0.08741    8.54506   15.03966    6.62797
     144      444        4    -0.04283    9.16941   15.80955    7.63931
     145      444        4    -0.08741    8.43219   16.64291    8.52249
     146      444        4    -0.08741   -1.17189   16.54268    8.77724
     147      444        4    -0.04283   -1.79773   15.75554    7.78062
     148      444        4    -0.08741   -1.06157   14.90591    6.91157
     149      444        4    -0.08741   -1.70005   14.16598    5.94458
     150      444        4    -0.04283   -1.91590   17.33605    9.63274
     151      444        4     0.67697    0.31646   -1.92557   10.69491
     152      444        4    -0.08741    9.06820   17.37560    9.49634
     153      444        4    -0.04283    7.79073    6.08378    0.23473
     154      444        4     0.67697    9.28032    6.08370    0.18095
     155      444        4    -0.08741    7.12934    6.73179    1.31241
     156      444        4    -0.08741    5.75821    6.72390    1.39425
     157      444        4    -0.08741    3.56759    6.04627    0.45140
     158      444        4     0.67697   -0.31571    0.79681   19.20955
     159      444        4    -0.04283    4.97793    6.05499    0.41313
     160      444        4    -0.04283    3.98538    0.77977   18.95892
     161      444        4    -0.08741    5.39756    0.82523   18.89161
     162      444        4    -0.08741    3.20070    0.07937   18.00273
     163      444        4    -0.04283    1.17099    0.77565   19.13203
     164      444        4    -0.08741    1.82815    0.07000   18.08772
     165      444        3     0.12571   10.22171    1.70410   13.81430
     166      444        3     0.12571    9.05288    1.66592   15.88546
     167      444        3     0.12571    8.38229   -0.63658   15.46899
     168      444        3     0.12571    7.92213    1.07939   13.87259
     169      444        3     0.12571    9.54956   -0.59554   13.39077
     170      444        3     0.12571   10.72701   -0.03415   15.43464
     171      444        3     0.12571    5.60624   -0.14803   11.68584
     172      444        3     0.12571    4.40537   -0.32334    9.59349
     173      444        3     0.12571    4.74840   -2.30153   10.95359
     174      444        3     0.12571    6.79663    0.08069    9.62862
     175      444        3     0.12571    7.09385   -1.87032   10.97871
     176      444        3     0.12571    5.93374   -2.08519    8.90540
     177      444        4     0.67697    1.87888   -2.11028   14.27199
     178      444        4    -0.04283    2.22116   -3.00638   15.41835
     179      444        4    -0.08741    1.35059   -3.14188   16.48838
     180      444        4    -0.04283    1.69868   -3.92416   17.61472
     181      444        4    -0.08741    0.84812   -4.02430   18.74892
     182      444        4    -0.08741    1.31562   19.92738    0.22276
     183      444        4    -0.08741    1.73368   14.69715   18.74814
     184      444        4    -0.08741    2.25501   15.62105   16.50467
     185      444        4    -0.08741    1.89958   16.40848   15.43484
     186      444        4    -0.04283    2.55284   19.22530    0.22335
     187      444        4     0.67697    2.99047   18.44979    1.42310
     188      444        4    -0.04283    1.38807   15.47968   17.62257
     189      444        4     0.67697    0.86646    1.59318   10.69256
     190      444        4    -0.04283    0.62005    2.48420    9.51597
     191      444        4    -0.08741    1.64439    2.72197    8.61198
     192      444        4    -0.04283    1.43843    3.50064    7.45247
     193      444        4    -0.04283    0.14007    4.06948    7.22225
     194      444        4    -0.08741   -0.89695    3.81479    8.16254
     195      444        4    -0.08741   -0.66569    3.04156    9.27849
     196      444        4    -0.08741    2.47067    3.71829    6.49942
     197      444        4    -0.08741    2.24706    4.50325    5.39132
     198      444        4    -0.08741   -0.06587    4.84186    6.05390
     199      444        4    -0.04283    0.96516    5.07123    5.15738
     200      444        4     0.67697    0.75341    5.88702    3.91543
     201      444        4     0.67697    2.39547    1.45791   14.21703
     202      444        4    -0.04283    3.04337    2.36688   15.22190
     203      444        4    -0.08741    2.30168    3.00390   16.20124
     204      444        4    -0.04283    2.92625    3.81005   17.18393
     205      444        4    -0.08741    2.18966    4.47745   18.19900
     206      444        4    -0.08741    4.98237    4.74447   18.16131
     207      444        4    -0.04283    4.35557    3.95903   17.16411
     208      444        4    -0.08741    5.09143    3.30993   16.13648
     209      444        4    -0.08741    4.45285    2.53943   15.19383
     210      444        4    -0.04283    4.23914    5.39285   19.13203
     211      444        4     0.67697    6.55773   10.82695    0.56033
     212      444        4    -0.08741    2.82666    5.25371   19.13792
     213      444        4    -0.04283    1.56597   -1.14678    5.99012
     214      444        4     0.67697    3.05589   -1.19415    5.97010
     215      444        4    -0.08741    0.90335   -0.26563    6.88625
     216      444        4    -0.08741   -0.46834   -0.19161    6.90372
     217      444        4    -0.08741    9.73612   -0.93023    6.02093
     218      444        4     0.67697    5.94009   18.46239    5.16896
     219      444        4    -0.04283   11.14832   -0.98178    6.01681
     220      444        4    -0.04283   10.24130   18.23377    5.09045
     221      444        4    -0.08741   -0.74254   18.16479    5.11243
     222      444        4    -0.08741    9.45790   17.47457    4.17881
     223      444        4    -0.04283    7.42678   18.39248    5.13324
     224      444        4    -0.08741    8.08529   17.55533    4.19216
     225      444        5    -0.30412    4.48187   13.51834    3.44146
     226      444        5    -0.39673    2.78650   13.61535    5.20487
     227      444        5    -0.39673    2.11340   13.72638    2.85346
     228      444        5    -0.30412    3.28488   15.61686    3.88442
     229      444        5    -0.30412   10.70108   10.85591    1.70807
     230      444        5    -0.30412   -0.48179    8.73684    1.46019
     231      444        5    -0.39673    0.71661   10.76787    2.11865
     232      444        5    -0.39673   -1.80237    5.95247   19.46528
     233      444        5    -0.30412   10.63283    0.26508   13.97779
     234      444        5    -0.39673    8.94034    1.96593   14.46354
     235      444        5    -0.39673    8.26266   -0.34872   14.04256
     236      444        5    -0.30412    9.42972    0.22891   16.11980
     237      444        5    -0.30412    4.46214   -0.82411   10.99068
     238      444        5    -0.30412    5.68023   -0.58834    8.87301
     239      444        5    -0.39673    6.87481   -0.40893   11.00305
     240      444        5    -0.39673    4.43715   17.51545   10.27158
     241      444        6    -0.59640    8.99328   13.40952    1.10633
     242      444        6    -0.59640    7.01230   14.24917    1.81562
     243      444        7    -0.59640    8.48642   -1.78307   18.81330
     244      444        7    -0.58746   10.05948   -2.69822   17.49736
     245      444        6    -0.59640    8.25861   10.21021    3.49798
     246      444        6    -0.59640    6.13933   10.85237    3.97235
     247      444        7    -0.58746    7.89486    1.75643    7.07486
     248      444        7    -0.59640    5.70189    2.01806    6.59716
     249      444        6    -0.59640    9.42471   12.84311    3.87853
     250      444        6    -0.59640    7.36571   13.49473    4.57703
     251      444        6    -0.59640   -0.44551   -1.42822   11.58908
     252      444        6    -0.59640    1.57955   -1.76656   10.62367
     253      444        7    -0.59640    0.79724    6.28001    0.32187
     254      444        7    -0.59640   -0.95063   -0.05350   18.49751
     255      444        7    -0.59640    9.88752    6.39914    1.26040
     256      444        7    -0.59640    8.20198    1.20466   18.70241
     257      444        6    -0.59640    2.74560   -1.99625   13.33955
     258      444        6    -0.59640    0.76096   -1.49653   14.31183
     259      444        7    -0.59640    2.35992   18.71311    2.53669
     260      444        7    -0.58746    3.92383   17.61057    1.36265
     261      444        6    -0.59640    2.03159    1.07736   10.78657
     262      444        6    -0.59640   -0.09364    1.38235   11.50587
     263      444        7    -0.58746    1.70673    6.45062    3.34666
     264      444        7    -0.59640   -0.48834    5.93502    3.48562
     265      444        6    -0.59640    3.18359    0.82758   13.43591
     266      444        6    -0.59640    1.12355    1.36038   14.22606
     267      444        6    -0.59640    5.79751   11.58429    1.25097
     268      444        6    -0.59640    7.82008   10.71726    0.69948
     269      444        7    -0.59640    6.96482   -1.15436    6.22014
     270      444        7    -0.59640    5.30890   18.00483    4.15644
     271      444        7    -0.59640    3.66362   -0.22993    6.54868
     272      444        7    -0.59640    2.06154   17.90437    5.41095
     273      444        1     0.89435    7.18275    7.11473   21.86144
     274      444        1     0.89435    4.68989    8.05658   22.57407
     275      444        1     0.91297    7.85781   -4.83576   37.81520
     276      444        1     0.91297   -2.23932    2.03356   21.31014
     277      444        1     0.89435    0.94348   -5.10134   31.57269
     278      444        1     0.89435   -1.55202   -4.61807   32.63840
     279      444        1     0.91297    1.72300   13.13744   23.51574
     280      444        1     0.91297    3.93693   -4.48879   26.49225
     281      444        2     0.09525    3.19912    8.72400   25.14236
     282      444        2     0.09525    2.34409    7.34813   24.39892
     283      444        2     0.09525    0.29524   10.93178   25.14864
     284      444        2     0.09525    2.02090   10.77367   25.57806
     285      444        2     0.09525    0.87558   10.97693   21.53643
     286      444        2     0.09525   -0.37535   11.03415   22.81744
     287      444        2     0.09525   -0.85105    9.08380   24.12768
     288      444        2     0.09525    0.02172    7.55353   23.79502
     289      444        2     0.09525    1.66000    7.45371   22.08087
     290      444        2     0.09525    2.04252    8.89932   21.09818
     291      444        2     0.09525    3.19840   10.78349   22.11070
     292      444        2     0.09525    3.70601   10.69451   23.81661
     293      444        2     0.09525   -2.41793    6.56188   23.20702
     294      444        2     0.09525   -2.15512    7.86878   22.01728
     295      444        2     0.09525    8.15607    4.39038   20.90584
     296      444        2     0.09525    8.78998    4.55918   22.56014
     297      444        2     0.09525    9.37035    7.64638   19.76890
     298      444        2     0.09525    6.84114    1.57100   38.91878
     299      444        2     0.09525   -0.08536    4.24339   21.60120
     300      444        2     0.09525   -1.20473    4.46724   22.96267
     301      444        2     0.09525   -0.65586    7.56838   20.19753
     302      444        2     0.09525    0.23072    6.02938   19.99754
     303      444        2     0.09525    8.03793   -0.50098   38.66914
     304      444        2     0.09525   -2.59909   -0.56709   38.97550
     305      444        2     0.09525    4.99441   12.03082   20.82361
     306      444        2     0.09525    4.52131   14.42821   20.49546
     307      444        2     0.09525    6.80828   -3.42384   19.64506
     308      444        2     0.09525    7.21698   10.37804   37.73277
     309      444        2     0.09525    7.73677    7.97393   38.15218
     310      444        2     0.09525    7.07525    5.77222   39.11387
     311      444        2     0.09525    7.18965    3.39276   23.85566
     312      444        2     0.09525    2.66742    2.18389   25.56373
     313      444        2     0.09525    3.10573    4.45905   24.65955
     314      444        2     0.09525    7.98674    1.08945   24.29392
     315      444        2     0.09525    7.57583   -1.17178   25.26895
     316      444        2     0.09525    3.49416   -0.11029   26.09816
     317      444        2     0.09525    5.80741   10.49582   26.12681
     318      444        2     0.09525    5.69129   12.09250   28.03624
     319      444        2     0.09525   -1.74328   11.92629   28.50413
     320      444        2     0.09525   -1.63472   10.24908   26.65750
     321      444        2     0.09525   -2.80465    8.91084   24.90508
     322      444        2     0.09525    8.43299   -6.67179   29.80849
     323      444        2     0.09525    6.06792    2.63742   21.69658
     324      444        2     0.09525    3.59667    2.62788   21.84830
     325      444        2     0.09525    1.39416    1.93855   20.92056
     326      444        2     0.09525    4.25869   -4.28437   37.70844
     327      444        2     0.09525    2.04470   -5.04899   36.81898
     328      444        2     0.09525   -0.42322   -5.06264   36.97775
     329      444        2     0.09525   -3.04188   -2.26484   33.87622
     330      444        2     0.09525    8.50201   -2.67859   32.36657
     331      444        2     0.09525    6.44334   -2.74660   36.02176
     332      444        2     0.09525    8.17040   -2.29687   35.96838
     333      444        2     0.09525    7.01644   -6.27821   35.25751
     334      444        2     0.09525    5.76792   -5.03842   35.59666
     335      444        2     0.09525    5.30122   -3.32407   33.98711
     336      444        2     0.09525    6.17965   -3.30772   32.42467
     337      444        2     0.09525    7.81355   -4.95983   31.94755
     338      444        2     0.09525    8.18982   -6.24095   33.13729
     339      444        2     0.09525   -3.05511   -5.68129   35.20374
     340      444        2     0.09525   -2.54383   -4.00019   35.50108
     341      444        2     0.09525    3.74148   -3.66550   31.33659
     342      444        2     0.09525    4.00004   -5.12014   32.34126
     343      444        2     0.09525    1.92047   -5.41044   28.69726
     344      444        2     0.09525    2.55702   -3.83989   29.23815
     345      444        2     0.09525    3.12615   -7.25878   31.61391
     346      444        2     0.09525    0.68373   12.70634   30.06344
     347      444        2     0.09525    6.07728   -4.70994   28.71983
     348      444        2     0.09525    4.95951   -3.43197   29.24345
     349      444        2     0.09525    5.49582   -6.82785   31.64021
     350      444        2     0.09525    6.38689   -6.67712   30.09837
     351      444        2     0.09525    1.88397   12.92958   27.99169
     352      444        2     0.09525    3.64398   13.23864   27.99837
     353      444        2     0.09525   -1.26933   -7.22892   36.10340
     354      444        2     0.09525   -1.75965   -8.08545   38.35944
     355      444        2     0.09525    0.60028   -4.81484   20.73490
     356      444        2     0.09525    1.02377    9.56107   38.39182
     357      444        2     0.09525    1.55873   10.50685   36.14442
     358      444        2     0.09525    0.90886   11.93575   34.20849
     359      444        2     0.09525    0.96965   -2.30904   28.41739
     360      444        2     0.09525    8.85078   -0.36712   27.60133