Created on Tue Feb 06 14:37:46 2018 

        3264 atoms
        3792 bonds
        7152 angles
        9984 dihedrals
        3744 impropers

           8 atom types
          11 bond types
          19 angle types
           5 dihedral types
           1 improper types
           0.000000  37.095000 xlo xhi
           0.000000  40.190630 ylo yhi
           0.000000  39.211742 zlo zhi
          -3.301446  -3.455849  -8.912127 xy xz yz

Masses

    1    65.380000000 # Zn4+2
    2    65.380000000 # Zn3f2
    3     1.007940000 # H_
    4    12.010700000 # C_3
    5    12.010700000 # C_R
    6    14.006700000 # N_3
    7    15.999400000 # O_2
    8    15.999400000 # O_R

Bond Coeffs

    1      101.329368        2.217526  # Zn4+2 N_3
    2      104.409475        2.122938  # Zn4+2 O_2
    3      148.759211        1.886642  # Zn3f2 O_R
    4      153.811316        1.929528  # Zn3f2 N_3
    5      331.069389        1.109401  # H_ C_3
    6      357.440381        1.081418  # H_ C_R
    7      528.634538        1.451071  # C_3 N_3
    8      714.557442        1.269010  # C_R O_2
    9      391.669513        1.458000  # C_R C_R
   10      462.655054        1.379256  # C_R C_R
   11      646.680887        1.311940  # C_R O_R

Angle Coeffs

    1              cosine/periodic       42.755432               1               4 # N_3 Zn4+2 O_2
    2              cosine/periodic       43.207730               1               4 # O_2 Zn4+2 O_2
    3                      fourier       47.038551        0.343737        0.374972        0.281246 # N_3 Zn3f2 O_R
    4                      fourier       45.004281        0.343737        0.374972        0.281246 # O_R Zn3f2 O_R
    5                      fourier       61.342703        0.343737        0.374972        0.281246 # H_ C_3 H_
    6                      fourier      105.465539        0.343737        0.374972        0.281246 # H_ C_3 N_3
    7                      fourier      204.567257        0.343737        0.374972        0.281246 # N_3 C_3 N_3
    8              cosine/periodic      256.805977              -1               3 # O_2 C_R O_2
    9              cosine/periodic      148.862838              -1               3 # O_2 C_R C_R
   10              cosine/periodic      117.010657              -1               3 # C_R C_R C_R
   11              cosine/periodic      101.626578              -1               3 # C_R C_R C_R
   12              cosine/periodic       76.817955              -1               3 # C_R C_R H_
   13              cosine/periodic      137.761490              -1               3 # O_R C_R C_R
   14              cosine/periodic      217.450257              -1               3 # O_R C_R O_R
   15                      fourier      123.892715        0.317506        0.313225        0.272502 # C_3 N_3 C_3
   16                      fourier       25.108026        0.317506        0.313225        0.272502 # Zn4+2 N_3 C_3
   17                      fourier       38.701705        0.317506        0.313225        0.272502 # Zn3f2 N_3 C_3
   18              cosine/periodic       28.000941              -1               3 # Zn4+2 O_2 C_R
   19              cosine/periodic       46.721183              -1               3 # C_R O_R Zn3f2

Dihedral Coeffs

    1        0.030516               1               3 # H_ C_3 N_3 C_3
    2        0.040687               1               3 # N_3 C_3 N_3 C_3
    3        2.245703              -1               2 # C_R C_R O_2 Zn4+2
    4        0.555556              -1               2 # O_2 C_R C_R C_R
    5        1.497136              -1               2 # C_R C_R C_R H_

Improper Coeffs

    1        2.000000        1.000000       -1.000000        0.000000               0 # O_2 C_R O_2 C_R

Pair Coeffs

    1        0.124000        2.461553 # Zn4+2 Zn4+2
    2        0.124000        2.461553 # Zn3f2 Zn3f2
    3        0.044000        2.571134 # H_ H_
    4        0.105000        3.430851 # C_3 C_3
    5        0.105000        3.430851 # C_R C_R
    6        0.069000        3.260689 # N_3 N_3
    7        0.060000        3.118146 # O_2 O_2
    8        0.060000        3.118146 # O_R O_R

Atoms

       1      444        1     0.88606    6.52693   -1.02722   10.96968
       2      444        1     0.88606    9.01877   -2.01561   10.32543
       3      444        2     0.90929    3.49748    3.99779   11.87782
       4      444        2     0.90929    4.13954    6.35303   14.80831
       5      444        1     0.88606    0.38310   10.93789    1.42848
       6      444        1     0.88606    2.87737   10.49576    0.32212
       7      444        2     0.90929    9.70332   10.68928    6.53209
       8      444        2     0.90929   -2.02005   13.02413    9.47944
       9      444        3     0.09520    4.90753    1.62725   10.48385
      10      444        3     0.09520    5.55757    1.63096   12.14388
      11      444        3     0.09520    5.22401   -0.28240   13.59589
      12      444        3     0.09520    4.34960   -1.71364   12.99320
      13      444        3     0.09520    3.47868   -1.74163   10.74441
      14      444        3     0.09520    3.72862   -0.33487    9.66765
      15      444        3     0.09520    2.26870    1.84822   13.74666
      16      444        3     0.09520    4.02848    1.75523   14.03251
      17      444        3     0.09520    1.09088   -0.09578   12.92537
      18      444        3     0.09520    1.98403   -1.60625   12.58560
      19      444        3     0.09520    2.53435    1.72611   10.10212
      20      444        3     0.09520    1.39895    1.81388   11.48708
      21      444        3     0.09520    8.37600   15.44837    9.12320
      22      444        3     0.09520    8.88252   15.39331   10.83166
      23      444        3     0.09520   11.37637   -1.31085    8.47895
      24      444        3     0.09520    8.87511   17.39371    7.76098
      25      444        3     0.09520   -2.33414   17.29847   11.80587
      26      444        3     0.09520   -0.30667   -1.36869   10.79872
      27      444        3     0.09520   10.06391   15.33618    7.36416
      28      444        3     0.09520   -0.57476   15.19738    7.79863
      29      444        3     0.09520    1.33360   -1.49465    9.08418
      30      444        3     0.09520    0.56270   17.06843    8.78186
      31      444        3     0.09520    0.09313   15.14200   10.12898
      32      444        3     0.09520   -1.15425   15.22707   11.37141
      33      444        3     0.09520    6.25354   15.49803    6.88774
      34      444        3     0.09520    1.35921   16.00060    6.07096
      35      444        3     0.09520    2.51156   17.36633    7.81019
      36      444        3     0.09520    6.38177   13.81773    5.06106
      37      444        3     0.09520    5.23863   12.46520    3.28987
      38      444        3     0.09520    1.47056   14.22675    4.30447
      39      444        3     0.09520   10.53273    1.22913    7.83176
      40      444        3     0.09520   11.15489    3.41356    6.80735
      41      444        3     0.09520    6.79431    2.88095    9.17319
      42      444        3     0.09520   10.60884    5.81454    6.35426
      43      444        3     0.09520    6.98415    7.50048    7.93548
      44      444        3     0.09520    6.29458    5.26589    8.81323
      45      444        3     0.09520   -0.09619    4.00182   12.22603
      46      444        3     0.09520    9.92518    6.67562   15.72901
      47      444        3     0.09520    0.03188    6.63312   15.62686
      48      444        3     0.09520   10.06759    3.34859   11.24416
      49      444        3     0.09520    7.59628    3.39532   11.34004
      50      444        3     0.09520    7.72196    5.89103   14.84223
      51      444        3     0.09520    7.12076   14.16112   12.17152
      52      444        3     0.09520    2.66137   13.60999   14.34522
      53      444        3     0.09520    3.31108   15.79145   13.33493
      54      444        3     0.09520    7.59771   11.77029   12.52737
      55      444        3     0.09520    6.88095    9.53479   13.38610
      56      444        3     0.09520    3.20380   11.22267   14.83713
      57      444        3     0.09520   11.12619    9.86003    3.90823
      58      444        3     0.09520   -0.59120   11.47810    4.28624
      59      444        3     0.09520   -0.92567   13.32230    2.74659
      60      444        3     0.09520   10.56816   13.05459    1.21478
      61      444        3     0.09520    9.70129   10.86682    0.68189
      62      444        3     0.09520    9.95218    9.50293    1.81217
      63      444        3     0.09520    8.48096   12.98658    4.85108
      64      444        3     0.09520   10.24025   13.28888    4.82755
      65      444        3     0.09520    7.30729   12.61970    2.77031
      66      444        3     0.09520    8.20301   12.62831    1.22380
      67      444        3     0.09520    8.75381    9.46244    3.91627
      68      444        3     0.09520    7.61558   10.79056    4.30976
      69      444        3     0.09520    2.16225    5.46282   17.09063
      70      444        3     0.09520    2.66565    7.14091   17.42099
      71      444        3     0.09520    5.23545    8.54659    0.59621
      72      444        3     0.09520    2.66109    3.70021   18.68322
      73      444        3     0.09520    3.80800    7.66585   19.49784
      74      444        3     0.09520    5.91247   10.82150    1.05989
      75      444        3     0.09520    3.85359    3.77576   16.59206
      76      444        3     0.09520    5.57910    4.23252   16.55696
      77      444        3     0.09520    7.55619    9.18147    0.55720
      78      444        3     0.09520    6.71150    4.77488   18.60323
      79      444        3     0.09520    6.24275    6.51742   17.02593
      80      444        3     0.09520    4.98930    7.74768   17.38374
      81      444        3     0.09520    0.02946    3.27710   16.64695
      82      444        3     0.09520    7.49915    2.37398   16.95653
      83      444        3     0.09520    8.65159    3.77240   18.66930
      84      444        3     0.09520    0.15739    1.86525   14.60637
      85      444        3     0.09520   -0.98605    0.43872   12.89615
      86      444        3     0.09520    7.60986    1.04077   14.83635
      87      444        3     0.09520    4.38056    7.35043    2.94715
      88      444        3     0.09520    4.98519    5.86785    4.85677
      89      444        3     0.09520    0.62869    8.30065    4.82442
      90      444        3     0.09520    4.42211    4.90123    7.09144
      91      444        3     0.09520    0.78656    6.07567    9.06203
      92      444        3     0.09520    0.11133    7.42416    7.07066
      93      444        3     0.09520    6.11127   11.02389    6.61384
      94      444        3     0.09520    3.76733   13.85243    9.99292
      95      444        3     0.09520    6.23899   13.76398    9.92645
      96      444        3     0.09520    3.90982   10.20856    5.76020
      97      444        3     0.09520    1.43841   10.29004    5.83059
      98      444        3     0.09520    1.56486   13.15924    9.03341
      99      444        3     0.09520    0.92180    8.72444   16.52598
     100      444        3     0.09520    8.83464   10.98060   16.45031
     101      444        3     0.09520    9.47357    9.51415   18.35933
     102      444        3     0.09520    1.41206    9.59910   14.27660
     103      444        3     0.09520    0.70723   10.93163   12.27328
     104      444        3     0.09520    9.38859   11.98321   14.23151
     105      444        4     0.12550    4.72918    1.29178   11.51159
     106      444        4     0.12550    4.38604   -0.61824   12.97281
     107      444        4     0.12550    3.52627   -0.64649   10.70088
     108      444        4     0.12550    3.20514    1.39817   13.39826
     109      444        4     0.12550    2.04117   -0.50994   12.56442
     110      444        4     0.12550    2.33921    1.37634   11.12476
     111      444        4     0.12550    9.15612   15.74871    9.83215
     112      444        4     0.12550    9.66262   17.69040    8.46601
     113      444        4     0.12550   -2.03588   17.63285   10.80362
     114      444        4     0.12550   -1.52981   15.65697    8.07762
     115      444        4     0.12550   -0.40274   17.50692    9.06772
     116      444        4     0.12550   -0.86538   15.59217   10.42052
     117      444        5     0.67604    5.09549   17.28357    8.56620
     118      444        5    -0.04146    4.45127   16.49728    7.45984
     119      444        5    -0.08851    5.18663   15.60771    6.69580
     120      444        5    -0.04146    4.57451   14.83024    5.68374
     121      444        5    -0.04146    3.15996   14.95356    5.46278
     122      444        5    -0.08851    2.42969   15.88400    6.25153
     123      444        5    -0.08851    3.05908   16.63816    7.21516
     124      444        5    -0.08851    5.31097   13.91935    4.87971
     125      444        5    -0.08851    4.68787   13.17117    3.90941
     126      444        5    -0.04146    3.28798   13.27640    3.69590
     127      444        5    -0.08851    2.54557   14.15214    4.46916
     128      444        5     0.67604    2.63781   12.42125    2.64562
     129      444        5     0.67604    8.29482    0.63272    9.24652
     130      444        5    -0.04146    8.62703    1.93001    8.57757
     131      444        5    -0.08851    9.86530    2.08915    7.88156
     132      444        5    -0.08851   10.20427    3.29423    7.32867
     133      444        5    -0.04146    9.33607    4.41613    7.43141
     134      444        5    -0.04146    8.08549    4.26317    8.12271
     135      444        5    -0.08851    7.75120    3.00084    8.66638
     136      444        5    -0.08851    9.67070    5.68222    6.89558
     137      444        5    -0.04146    8.83688    6.77340    7.07929
     138      444        5    -0.08851    7.61139    6.62298    7.78569
     139      444        5    -0.08851    7.23563    5.39312    8.27368
     140      444        5     0.67604    9.26983    8.11680    6.58424
     141      444        5     0.67604    1.59641    5.22556   13.90978
     142      444        5    -0.04146    0.10899    5.28197   13.93213
     143      444        5    -0.08851   -0.62041    4.57388   12.99144
     144      444        5    -0.04146   10.33167    4.60286   12.99850
     145      444        5    -0.04146    9.65909    5.35219   14.02565
     146      444        5    -0.08851   -1.93105    6.08805   14.96281
     147      444        5    -0.08851   -0.55786    6.06640   14.91085
     148      444        5    -0.08851    9.55831    3.90412   12.03330
     149      444        5    -0.08851    8.18541    3.92610   12.08369
     150      444        5    -0.04146    7.51790    4.63244   13.11946
     151      444        5    -0.08851    8.24665    5.33061   14.06878
     152      444        5     0.67604    6.03041    4.64282   13.17103
     153      444        5     0.67604    5.60583   16.41052   12.04114
     154      444        5    -0.04146    5.25873   15.10629   12.68676
     155      444        5    -0.08851    6.14222   14.03928   12.63500
     156      444        5    -0.04146    5.78527   12.77235   13.15613
     157      444        5    -0.04146    4.50960   12.61631   13.79881
     158      444        5    -0.08851    3.63227   13.73359   13.86214
     159      444        5    -0.08851    3.98949   14.94057   13.30768
     160      444        5    -0.08851    6.63919   11.64210   13.03241
     161      444        5    -0.08851    6.24752   10.41183   13.51178
     162      444        5    -0.04146    5.00001   10.26168   14.17877
     163      444        5    -0.08851    4.16030   11.35589   14.31229
     164      444        5     0.67604    4.55428    8.92359   14.67715
     165      444        4     0.12550   10.94672   10.93664    3.81236
     166      444        4     0.12550   10.60297   12.78875    2.27781
     167      444        4     0.12550    9.74792   10.57948    1.73904
     168      444        4     0.12550    9.41861   12.74932    4.33603
     169      444        4     0.12550    8.25882   12.36225    2.28761
     170      444        4     0.12550    8.55724   10.53711    3.80393
     171      444        4     0.12550    2.94057    6.08765   17.54373
     172      444        4     0.12550    3.44664    4.32225   19.13200
     173      444        4     0.12550    4.10783    6.61485   19.60058
     174      444        4     0.12550    4.62280    4.40172   17.06554
     175      444        4     0.12550    5.74473    4.95438   19.09239
     176      444        4     0.12550    5.28280    6.69951   17.52765
     177      444        5     0.67604   -1.12740    4.52599   18.75517
     178      444        5    -0.04146   -1.77306    3.61947   17.74527
     179      444        5    -0.08851   -1.03781    3.06744   16.71106
     180      444        5    -0.04146   -1.65033    2.25151   15.72999
     181      444        5    -0.04146    9.29956    2.00985   15.80096
     182      444        5    -0.08851    8.56964    2.57549   16.88203
     183      444        5    -0.08851    9.19915    3.35091   17.82879
     184      444        5    -0.08851   -0.91372    1.66727   14.66480
     185      444        5    -0.08851   -1.53822    0.88700   13.72019
     186      444        5    -0.04146    9.42744    0.65576   13.77548
     187      444        5    -0.08851    8.68504    1.21718   14.80008
     188      444        5     0.67604    8.77823   -0.17929   12.70833
     189      444        5     0.67604    2.15081    8.86390    2.65797
     190      444        5    -0.04146    2.46927    7.92676    3.78021
     191      444        5    -0.08851    3.70531    7.22389    3.79178
     192      444        5    -0.08851    4.03559    6.40578    4.84775
     193      444        5    -0.04146    3.15883    6.25994    5.95626
     194      444        5    -0.04146    1.90949    6.97016    5.95038
     195      444        5    -0.08851    1.58463    7.77816    4.83736
     196      444        5    -0.08851    3.48499    5.45812    7.07674
     197      444        5    -0.04146    2.64447    5.39807    8.17624
     198      444        5    -0.08851    1.41996    6.12206    8.17722
     199      444        5    -0.08851    1.05179    6.87096    7.08223
     200      444        5     0.67604    3.07239    4.61837    9.37886
     201      444        5     0.67604    7.80315   12.39919    8.17800
     202      444        5    -0.04146    6.31586   12.40696    8.23780
     203      444        5    -0.08851    5.58685   11.64458    7.34005
     204      444        5    -0.04146    4.17421   11.64440    7.37063
     205      444        5    -0.04146    3.50166   12.48175    8.32740
     206      444        5    -0.08851    4.27591   13.23447    9.25123
     207      444        5    -0.08851    5.64903   13.18933    9.21809
     208      444        5    -0.08851    3.40064   10.85600    6.47719
     209      444        5    -0.08851    2.02770   10.89957    6.51072
     210      444        5    -0.04146    1.36024   11.75515    7.42729
     211      444        5    -0.08851    2.08928   12.52791    8.31661
     212      444        5     0.67604   -0.12726   11.80314    7.45003
     213      444        5     0.67604   -0.60324    8.10685   18.68518
     214      444        5    -0.04146   -0.94254    9.02591   17.55470
     215      444        5    -0.08851   -0.05477    9.20699   16.50579
     216      444        5    -0.04146   -0.40457    9.99612   15.38394
     217      444        5    -0.04146   -1.67831   10.66090   15.36826
     218      444        5    -0.08851   -2.56043   10.47969   16.46874
     219      444        5    -0.08851   -2.20793    9.67657   17.50804
     220      444        5    -0.08851    0.45475   10.12208   14.25798
     221      444        5    -0.08851    0.06925   10.86080   13.16162
     222      444        5    -0.04146   -1.17658   11.54712   13.15691
     223      444        5    -0.08851   -2.02254   11.45518   14.25014
     224      444        5     0.67604   -1.61681   12.32826   11.95997
     225      444        6    -0.30219    4.67158   -0.19464   11.55531
     226      444        6    -0.30219    3.45309    1.88895   11.99762
     227      444        6    -0.39687    3.12738   -0.05624   13.45041
     228      444        6    -0.39687    2.25613   -0.08128   11.16476
     229      444        6    -0.30219    9.24806   17.23512    9.83921
     230      444        6    -0.30219   -1.91049   15.13348    9.43768
     231      444        6    -0.39687   -1.41946   17.11006    8.07801
     232      444        6    -0.39687   -0.74689   17.04744   10.43091
     233      444        6    -0.30219   10.89100   11.31297    2.37329
     234      444        6    -0.30219    9.66871   11.27475    4.50112
     235      444        6    -0.39687    9.34265   13.12601    2.93029
     236      444        6    -0.39687    8.47632   10.90254    2.39231
     237      444        6    -0.30219    3.03022    5.76191   18.99417
     238      444        6    -0.30219    4.24048    5.84247   16.85850
     239      444        6    -0.39687    4.73086    4.07608   18.48206
     240      444        6    -0.39687    5.39862    6.38449   18.94868
     241      444        7    -0.59098    5.98990   -2.01910    9.21868
     242      444        7    -0.59098    6.33736   17.09164    8.78774
     243      444        7    -0.59098    3.42070   11.79904    1.85275
     244      444        7    -0.59098    1.36518   12.36347    2.62581
     245      444        7    -0.59098    7.19917    0.57909    9.90018
     246      444        7    -0.59098    9.13738   -0.32103    9.14575
     247      444        8    -0.60869   10.16745    8.24516    5.71648
     248      444        8    -0.59098    8.67437    9.14253    7.13458
     249      444        7    -0.59098    4.67322   17.28024   11.95409
     250      444        8    -0.59098    2.21419    6.19813   14.46443
     251      444        8    -0.59098    2.16144    4.20953   13.38179
     252      444        8    -0.59098    5.41776    4.34362   12.08839
     253      444        8    -0.59098    5.45618    4.91391   14.27817
     254      444        7    -0.59098    6.79117   16.56181   11.59511
     255      444        8    -0.59098    5.16633    7.88973   14.16328
     256      444        8    -0.60869    3.63152    8.80790   15.52118
     257      444        7    -0.59098   -0.15868    9.46841    0.05215
     258      444        7    -0.59098    0.12094    4.76104   18.62911
     259      444        7    -0.59098    9.56477   -0.80794   11.92292
     260      444        7    -0.59098    7.50631   -0.19386   12.64814
     261      444        7    -0.59098    1.04713    9.50188    2.72659
     262      444        7    -0.59098    3.01421    8.98594    1.72492
     263      444        8    -0.60869    3.96847    3.74210    9.31377
     264      444        8    -0.59098    2.47493    4.92945   10.49934
     265      444        7    -0.59098   -1.53612    7.84791   19.51980
     266      444        8    -0.59098    8.42143   12.72770    9.23437
     267      444        8    -0.59098    8.36918   12.11065    7.07047
     268      444        8    -0.59098   -0.74037   10.81435    6.91774
     269      444        8    -0.59098   -0.70092   12.82279    7.96038
     270      444        7    -0.59098    0.57507    7.62039   18.72968
     271      444        8    -0.59098   -1.00191   12.05329   10.84028
     272      444        8    -0.60869    9.82722   13.17923   12.03134
     273      444        1     0.88606    4.79901   -5.48328   30.57555
     274      444        1     0.88606    7.29085   -6.47168   29.93130
     275      444        2     0.90929    1.76956   -0.45827   31.48370
     276      444        2     0.90929    2.41161    1.89697   34.41419
     277      444        1     0.88606   -1.34483    6.48183   21.03435
     278      444        1     0.88606    1.14945    6.03969   19.92800
     279      444        2     0.90929    7.97539    6.23321   26.13796
     280      444        2     0.90929   -3.74797    8.56806   29.08531
     281      444        3     0.09520    3.17961   -2.82881   30.08972
     282      444        3     0.09520    3.82965   -2.82510   31.74975
     283      444        3     0.09520    3.49608   -4.73847   33.20176
     284      444        3     0.09520    2.62168   -6.16971   32.59907
     285      444        3     0.09520    1.75076   -6.19769   30.35028
     286      444        3     0.09520    2.00069   -4.79093   29.27353
     287      444        3     0.09520    0.54078   -2.60785   33.35253
     288      444        3     0.09520    2.30056   -2.70083   33.63838
     289      444        3     0.09520   -0.63705   -4.55185   32.53124
     290      444        3     0.09520    0.25611   -6.06232   32.19147
     291      444        3     0.09520    0.80643   -2.72996   29.70799
     292      444        3     0.09520   -0.32898   -2.64218   31.09295
     293      444        3     0.09520    6.64807   10.99231   28.72907
     294      444        3     0.09520    7.15459   10.93724   30.43753
     295      444        3     0.09520    9.64845   -5.76691   28.08482
     296      444        3     0.09520    7.14718   12.93765   27.36686
     297      444        3     0.09520   -4.06206   12.84241   31.41174
     298      444        3     0.09520   -2.03460   -5.82475   30.40459
     299      444        3     0.09520    8.33598   10.88012   26.97003
     300      444        3     0.09520   -2.30269   10.74132   27.40450
     301      444        3     0.09520   -0.39433   -5.95071   28.69006
     302      444        3     0.09520   -1.16523   12.61236   28.38773
     303      444        3     0.09520   -1.63480   10.68594   29.73485
     304      444        3     0.09520   -2.88217   10.77100   30.97728
     305      444        3     0.09520    4.52562   11.04197   26.49361
     306      444        3     0.09520   -0.36872   11.54453   25.67683
     307      444        3     0.09520    0.78363   12.91027   27.41607
     308      444        3     0.09520    4.65384    9.36166   24.66693
     309      444        3     0.09520    3.51071    8.00914   22.89574
     310      444        3     0.09520   -0.25737    9.77069   23.91034
     311      444        3     0.09520    8.80481   -3.22693   27.43763
     312      444        3     0.09520    9.42696   -1.04250   26.41323
     313      444        3     0.09520    5.06639   -1.57511   28.77907
     314      444        3     0.09520    8.88091    1.35848   25.96013
     315      444        3     0.09520    5.25622    3.04442   27.54135
     316      444        3     0.09520    4.56666    0.80982   28.41910
     317      444        3     0.09520   -1.82411   -0.45424   31.83190
     318      444        3     0.09520    8.19725    2.21956   35.33488
     319      444        3     0.09520   -1.69604    2.17706   35.23273
     320      444        3     0.09520    8.33966   -1.10748   30.85003
     321      444        3     0.09520    5.86835   -1.06074   30.94591
     322      444        3     0.09520    5.99404    1.43497   34.44810
     323      444        3     0.09520    5.39283    9.70506   31.77739
     324      444        3     0.09520    0.93345    9.15392   33.95109
     325      444        3     0.09520    1.58316   11.33538   32.94080
     326      444        3     0.09520    5.86978    7.31422   32.13324
     327      444        3     0.09520    5.15303    5.07873   32.99198
     328      444        3     0.09520    1.47587    6.76661   34.44301
     329      444        3     0.09520    9.39827    5.40397   23.51411
     330      444        3     0.09520   -2.31912    7.02204   23.89211
     331      444        3     0.09520   -2.65359    8.86624   22.35246
     332      444        3     0.09520    8.84024    8.59853   20.82065
     333      444        3     0.09520    7.97336    6.41075   20.28776
     334      444        3     0.09520    8.22426    5.04687   21.41804
     335      444        3     0.09520    6.75304    8.53052   24.45695
     336      444        3     0.09520    8.51233    8.83282   24.43342
     337      444        3     0.09520    5.57937    8.16364   22.37618
     338      444        3     0.09520    6.47508    8.17225   20.82967
     339      444        3     0.09520    7.02589    5.00638   23.52214
     340      444        3     0.09520    5.88766    6.33449   23.91563
     341      444        3     0.09520    0.43433    1.00676   36.69650
     342      444        3     0.09520    0.93773    2.68485   37.02686
     343      444        3     0.09520    3.50752    4.09053   20.20209
     344      444        3     0.09520    0.93317   -0.75585   38.28909
     345      444        3     0.09520    2.08008    3.20979   39.10371
     346      444        3     0.09520    4.18454    6.36543   20.66576
     347      444        3     0.09520    2.12567   -0.68030   36.19793
     348      444        3     0.09520    3.85117   -0.22354   36.16283
     349      444        3     0.09520    5.82826    4.72541   20.16307
     350      444        3     0.09520    4.98358    0.31882   38.20910
     351      444        3     0.09520    4.51483    2.06135   36.63181
     352      444        3     0.09520    3.26138    3.29161   36.98961
     353      444        3     0.09520   -1.69846   -1.17897   36.25282
     354      444        3     0.09520    5.77123   -2.08208   36.56240
     355      444        3     0.09520    6.92367   -0.68366   38.27517
     356      444        3     0.09520   -1.57054   -2.59082   34.21224
     357      444        3     0.09520   -2.71398   -4.01734   32.50202
     358      444        3     0.09520    5.88193   -3.41529   34.44222
     359      444        3     0.09520    2.65263    2.89436   22.55303