Created on Tue Feb 06 14:38:40 2018 

        1548 atoms
        1872 bonds
        4428 angles
        3240 dihedrals
         216 impropers

           8 atom types
           8 bond types
          16 angle types
           2 dihedral types
           1 improper types
           0.000000  26.506499 xlo xhi
           0.000000  26.478579 ylo yhi
           0.000000  27.125464 zlo zhi
          -1.216278  -2.703394  -2.826610 xy xz yz

Masses

    1    40.078000000 # Ca6+2
    2    55.845000000 # Fe4+2
    3     1.007940000 # H_
    4    12.010700000 # C_1
    5    12.010700000 # C_3
    6    14.006700000 # N_2
    7    14.006700000 # N_3
    8    15.999400000 # O_3_z

Bond Coeffs

    1      136.487278        2.366389  # Ca6+2 N_2
    2      134.083569        2.380446  # Ca6+2 N_3
    3      160.511910        2.167794  # Ca6+2 O_3_z
    4      267.929642        1.792380  # Fe4+2 C_1
    5      331.069389        1.109401  # H_ C_3
    6      850.878848        0.861362  # H_ O_3_z
    7      607.496018        1.385350  # C_1 N_2
    8      528.634538        1.451071  # C_3 N_3

Angle Coeffs

    1              cosine/periodic       30.265455               1               4 # N_2 Ca6+2 N_3
    2              cosine/periodic       34.246173               1               4 # O_3_z Ca6+2 N_2
    3              cosine/periodic       30.718271               1               4 # N_2 Ca6+2 N_2
    4              cosine/periodic       33.697712               1               4 # N_3 Ca6+2 O_3_z
    5              cosine/periodic       38.918745               1               4 # O_3_z Ca6+2 O_3_z
    6              cosine/periodic       69.601511               1               4 # C_1 Fe4+2 C_1
    7              cosine/periodic       51.526417               1               1 # Fe4+2 C_1 N_2
    8                      fourier      105.465539        0.343737        0.374972        0.281246 # N_3 C_3 H_
    9                      fourier      204.567257        0.343737        0.374972        0.281246 # N_3 C_3 N_3
   10                      fourier       61.342703        0.343737        0.374972        0.281246 # H_ C_3 H_
   11              cosine/periodic       32.689101              -1               3 # Ca6+2 N_2 C_1
   12                      fourier      123.892715        0.317506        0.313225        0.272502 # C_3 N_3 C_3
   13                      fourier       32.580798        0.317506        0.313225        0.272502 # Ca6+2 N_3 C_3
   14                      fourier       22.478509        1.898490        2.651251        0.799497 # Ca6+2 O_3_z H_
   15                      fourier      110.159549        1.898490        2.651251        0.799497 # H_ O_3_z H_
   16                      fourier        9.865829        1.898490        2.651251        0.799497 # Ca6+2 O_3_z Ca6+2

Dihedral Coeffs

    1        0.030516               1               3 # H_ C_3 N_3 C_3
    2        0.040687               1               3 # N_3 C_3 N_3 C_3

Improper Coeffs

    1        2.000000        1.000000       -1.000000        0.000000               0 # C_3 N_3 C_3 C_3

Pair Coeffs

    1        0.238000        3.028165 # Ca6+2 Ca6+2
    2        0.013000        2.594297 # Fe4+2 Fe4+2
    3        0.044000        2.571134 # H_ H_
    4        0.105000        3.430851 # C_1 C_1
    5        0.105000        3.430851 # C_3 C_3
    6        0.069000        3.260689 # N_2 N_2
    7        0.069000        3.260689 # N_3 N_3
    8        0.060000        3.118146 # O_3_z O_3_z

Atoms

       1      444        1     1.49518    3.60485    0.77695    5.37595
       2      444        1     1.49530    7.14412    4.48172    1.40560
       3      444        1     1.49534    3.47277    6.63557    8.18689
       4      444        1     1.49516   -0.06640    2.93072   12.15723
       5      444        2    -0.81704    7.95666    3.70623    6.78143
       6      444        2    -0.81696    4.01190    8.82588    0.00000
       7      444        3     0.08220    4.40324    4.21004    5.74858
       8      444        3     0.08264    2.60733    4.17177    5.66578
       9      444        3     0.09818    1.51913    3.03486    3.86238
      10      444        3     0.09080    2.50234    2.22282    2.59966
      11      444        3     0.10283    2.39341    6.42141    2.80456
      12      444        3     0.08776    4.90311    2.27611    2.71187
      13      444        3     0.43236    1.99252    0.13123    7.56895
      14      444        3     0.30752    3.27641    0.75278    8.32849
      15      444        3     0.08224    3.75160    3.52692    1.03263
      16      444        3     0.08272    3.70747    5.32279    1.11521
      17      444        3     0.09812    4.79286    6.46223    2.91848
      18      444        3     0.09084    5.64907    5.51763    4.18155
      19      444        3     0.10264    1.44977    5.43387    3.97589
      20      444        3     0.08769    5.70588    3.11687    4.06982
      21      444        3     0.43236    6.36419    4.70853   12.77445
      22      444        3     0.30750    5.80150    3.39709   12.01609
      23      444        3     0.08212    2.67448    3.20247    7.81432
      24      444        3     0.08254    4.47035    3.24084    7.89710
      25      444        3     0.09832    5.55850    4.37776    9.70049
      26      444        3     0.09068    4.57532    5.18977   10.96318
      27      444        3     0.10294    4.68440    0.99120   10.75833
      28      444        3     0.08780    2.17452    5.13636   10.85099
      29      444        3     0.43239    5.08535    7.28148    5.99397
      30      444        3     0.30737    3.80149    6.65988    5.23441
      31      444        3     0.08199    3.32609    3.88561   12.53024
      32      444        3     0.08266    3.37031    2.08977   12.44766
      33      444        3     0.09820    2.28494    0.95027   10.64438
      34      444        3     0.09067    1.42873    1.89485    9.38134
      35      444        3     0.10265    5.62798    1.97875    9.58699
      36      444        3     0.08790    1.37181    4.29560    9.49308
      37      444        3     0.43252    0.71369    2.70418    0.78844
      38      444        3     0.30745    1.27633    4.01567    1.54683
      39      444        4     0.32356    6.57167    2.44850    6.47572
      40      444        4     0.31756    7.90708    4.17111    4.93877
      41      444        4     0.32468    0.47116    2.44011    6.36218
      42      444        5     0.06397    3.53266    4.21239    5.08182
      43      444        5     0.05380    2.44646    3.08230    3.27939
      44      444        4     0.32394    5.61031    1.44106    0.30604
      45      444        4     0.31748    3.95072    0.02836    1.84282
      46      444        4     0.32478    5.33884    7.53544    0.41918
      47      444        5     0.06376    3.70919    4.39658    1.69921
      48      444        5     0.05404    4.78800    5.53388    3.50171
      49      444        4     0.32385    0.50594    4.96393    7.08714
      50      444        4     0.31751   -0.82945    3.24129    8.62408
      51      444        4     0.32473    6.60643    4.97231    7.20068
      52      444        5     0.06409    3.54504    3.20018    8.48110
      53      444        5     0.05381    4.63117    4.33027   10.28347
      54      444        4     0.32315    1.46729    5.97137   13.25684
      55      444        4     0.31759    3.12683    7.38411   11.72007
      56      444        4     0.32442    1.73874   -0.12303   13.14371
      57      444        5     0.06435    3.36852    3.01596   11.86363
      58      444        5     0.05398    2.28978    1.87867   10.06119
      59      444        5     0.03338    2.37568    5.49389    3.39033
      60      444        5     0.09078    4.84869    3.13185    3.39076
      61      444        5     0.03345    4.70209    1.91874   10.17255
      62      444        5     0.09075    2.22903    4.28062   10.17212
      63      444        6    -0.67558    5.64419    1.73677    6.27488
      64      444        6    -0.67588    7.86145    4.42525    3.77993
      65      444        6    -0.69117    1.37196    1.72400    6.06797
      66      444        7    -0.40797    3.60537    3.03697    4.19151
      67      444        7    -0.18783    3.54208    5.47632    4.30360
      68      444        6    -0.67595    6.27911    2.39992    0.50714
      69      444        6    -0.67571    3.69482    0.06280    3.00166
      70      444        6    -0.69139    6.09534    6.66822    0.71324
      71      444        7    -0.40792    4.88646    4.37807    2.58987
      72      444        7    -0.18769    2.44695    4.32940    2.47723
      73      444        6    -0.67587    1.43340    5.67568    7.28796
      74      444        6    -0.67576   -0.78378    2.98712    9.78291
      75      444        6    -0.69127    5.70564    5.68843    7.49491
      76      444        7    -0.40825    3.47230    4.37566    9.37133
      77      444        7    -0.18782    3.53569    1.93624    9.25926
      78      444        6    -0.67521    0.79852    5.01250   13.05570
      79      444        6    -0.67595    3.38269    7.34968   10.56122
      80      444        6    -0.69103    0.98226    0.74421   12.84964
      81      444        7    -0.40801    2.19121    3.03443   10.97305
      82      444        7    -0.18810    4.63082    3.08321   11.08568
      83      444        8    -0.87821    2.95409   -0.02292    7.68173
      84      444        8    -0.87803    6.56189    3.75491   12.66230
      85      444        8    -0.87806    4.12379    7.43558    5.88114
      86      444        8    -0.87836    0.51597    3.65780    0.90058
      87      444        1     1.49518    2.25316   -0.63636   18.93869
      88      444        1     1.49530    5.79242    3.06841   14.96833
      89      444        1     1.49534    2.12107    5.22227   21.74962
      90      444        1     1.49516   -1.41810    1.51741   25.71996
      91      444        2    -0.81704    6.60496    2.29292   20.34417
      92      444        2    -0.81696    2.66020    7.41257   13.56273
      93      444        3     0.08220    3.05154    2.79674   19.31131
      94      444        3     0.08264    1.25564    2.75846   19.22851
      95      444        3     0.09818    0.16743    1.62156   17.42511
      96      444        3     0.09080    1.15064    0.80951   16.16240
      97      444        3     0.10283    1.04172    5.00811   16.36729
      98      444        3     0.08776    3.55141    0.86280   16.27460
      99      444        3     0.43236    0.64082   -1.28207   21.13169
     100      444        3     0.30752    1.92471   -0.66053   21.89123
     101      444        3     0.08224    2.39990    2.11361   14.59536
     102      444        3     0.08272    2.35577    3.90948   14.67794
     103      444        3     0.09812    3.44116    5.04893   16.48121
     104      444        3     0.09084    4.29737    4.10433   17.74428
     105      444        3     0.10264    0.09808    4.02057   17.53862
     106      444        3     0.08769    4.35418    1.70356   17.63255
     107      444        3     0.43236    5.01249    3.29523   26.33718
     108      444        3     0.30750    4.44980    1.98379   25.57882
     109      444        3     0.08212    1.32279    1.78917   21.37705
     110      444        3     0.08254    3.11865    1.82753   21.45984
     111      444        3     0.09832    4.20680    2.96446   23.26322
     112      444        3     0.09068    3.22362    3.77647   24.52591
     113      444        3     0.10294    3.33270   -0.42211   24.32106
     114      444        3     0.08780    0.82282    3.72306   24.41372
     115      444        3     0.43239    3.73365    5.86817   19.55670
     116      444        3     0.30737    2.44979    5.24658   18.79715
     117      444        3     0.08199    1.97440    2.47230   26.09297
     118      444        3     0.08266    2.01861    0.67646   26.01039
     119      444        3     0.09820    0.93324   -0.46304   24.20712
     120      444        3     0.09067    0.07703    0.48154   22.94407
     121      444        3     0.10265    4.27628    0.56545   23.14973
     122      444        3     0.08790    0.02011    2.88229   23.05582
     123      444        3     0.43252   -0.63801    1.29088   14.35117
     124      444        3     0.30745   -0.07536    2.60236   15.10956
     125      444        4     0.32356    5.21997    1.03520   20.03845
     126      444        4     0.31756    6.55538    2.75780   18.50151
     127      444        4     0.32468   -0.88054    1.02680   19.92491
     128      444        5     0.06397    2.18096    2.79909   18.64455
     129      444        5     0.05380    1.09477    1.66900   16.84212
     130      444        4     0.32394    4.25862    0.02775   13.86877
     131      444        4     0.31748    2.59902   -1.38495   15.40555
     132      444        4     0.32478    3.98714    6.12214   13.98192
     133      444        5     0.06376    2.35750    2.98327   15.26194
     134      444        5     0.05404    3.43630    4.12057   17.06444
     135      444        4     0.32385   -0.84575    3.55062   20.64987
     136      444        4     0.31751   -2.18115    1.82798   22.18681
     137      444        4     0.32473    5.25473    3.55900   20.76342
     138      444        5     0.06409    2.19335    1.78687   22.04383
     139      444        5     0.05381    3.27948    2.91697   23.84620
     140      444        4     0.32315    0.11559    4.55807   26.81957
     141      444        4     0.31759    1.77513    5.97080   25.28280
     142      444        4     0.32442    0.38705   -1.53633   26.70644
     143      444        5     0.06435    2.01682    1.60266   25.42637
     144      444        5     0.05398    0.93808    0.46537   23.62392
     145      444        5     0.03338    1.02399    4.08058   16.95306
     146      444        5     0.09078    3.49700    1.71854   16.95350
     147      444        5     0.03345    3.35039    0.50543   23.73528
     148      444        5     0.09075    0.87734    2.86731   23.73485
     149      444        6    -0.67558    4.29249    0.32347   19.83761
     150      444        6    -0.67588    6.50975    3.01194   17.34267
     151      444        6    -0.69117    0.02027    0.31069   19.63070
     152      444        7    -0.40797    2.25367    1.62366   17.75424
     153      444        7    -0.18783    2.19039    4.06301   17.86634
     154      444        6    -0.67595    4.92741    0.98661   14.06987
     155      444        6    -0.67571    2.34313   -1.35050   16.56439
     156      444        6    -0.69139    4.74364    5.25491   14.27597
     157      444        7    -0.40792    3.53477    2.96476   16.15260
     158      444        7    -0.18769    1.09525    2.91609   16.03996
     159      444        6    -0.67587    0.08170    4.26238   20.85069
     160      444        6    -0.67576   -2.13548    1.57381   23.34564
     161      444        6    -0.69127    4.35394    4.27513   21.05765
     162      444        7    -0.40825    2.12060    2.96236   22.93406
     163      444        7    -0.18782    2.18400    0.52293   22.82200
     164      444        6    -0.67521   -0.55318    3.59920   26.61843
     165      444        6    -0.67595    2.03099    5.93638   24.12395
     166      444        6    -0.69103   -0.36943   -0.66909   26.41238
     167      444        7    -0.40801    0.83951    1.62113   24.53578
     168      444        7    -0.18810    3.27912    1.66990   24.64841
     169      444        8    -0.87821    1.60239   -1.43623   21.24446
     170      444        8    -0.87803    5.21019    2.34161   26.22503
     171      444        8    -0.87806    2.77209    6.02228   19.44387
     172      444        8    -0.87836   -0.83573    2.24449   14.46331
     173      444        1     1.49518    3.19943    9.60314    5.37595
     174      444        1     1.49530    6.73869   13.30791    1.40560
     175      444        1     1.49534    3.06734   15.46177    8.18689
     176      444        1     1.49516   -0.47183   11.75691   12.15723
     177      444        2    -0.81704    7.55123   12.53242    6.78143
     178      444        2    -0.81696    3.60647   17.65207    0.00000
     179      444        3     0.08220    3.99781   13.03624    5.74858
     180      444        3     0.08264    2.20191   12.99796    5.66578
     181      444        3     0.09818    1.11371   11.86106    3.86238
     182      444        3     0.09080    2.09691   11.04901    2.59966
     183      444        3     0.10283    1.98799   15.24761    2.80456
     184      444        3     0.08776    4.49768   11.10230    2.71187
     185      444        3     0.43236    1.58709    8.95742    7.56895
     186      444        3     0.30752    2.87098    9.57897    8.32849
     187      444        3     0.08224    3.34617   12.35311    1.03263
     188      444        3     0.08272    3.30204   14.14898    1.11521
     189      444        3     0.09812    4.38743   15.28843    2.91848
     190      444        3     0.09084    5.24364   14.34383    4.18155
     191      444        3     0.10264    1.04435   14.26007    3.97589
     192      444        3     0.08769    5.30045   11.94306    4.06982
     193      444        3     0.43236    5.95876   13.53472   12.77445
     194      444        3     0.30750    5.39607   12.22329   12.01609
     195      444        3     0.08212    2.26906   12.02867    7.81432
     196      444        3     0.08254    4.06493   12.06703    7.89710
     197      444        3     0.09832    5.15308   13.20396    9.70049
     198      444        3     0.09068    4.16989   14.01597   10.96318
     199      444        3     0.10294    4.27897    9.81739   10.75833
     200      444        3     0.08780    1.76909   13.96256   10.85099
     201      444        3     0.43239    4.67992   16.10767    5.99397
     202      444        3     0.30737    3.39606   15.48607    5.23441
     203      444        3     0.08199    2.92067   12.71180   12.53024
     204      444        3     0.08266    2.96489   10.91596   12.44766
     205      444        3     0.09820    1.87951    9.77646   10.64438
     206      444        3     0.09067    1.02330   10.72104    9.38134
     207      444        3     0.10265    5.22256   10.80494    9.58699
     208      444        3     0.08790    0.96638   13.12179    9.49308
     209      444        3     0.43252    0.30826   11.53037    0.78844
     210      444        3     0.30745    0.87091   12.84186    1.54683
     211      444        4     0.32356    6.16624   11.27470    6.47572
     212      444        4     0.31756    7.50165   12.99730    4.93877
     213      444        4     0.32468    0.06573   11.26630    6.36218
     214      444        5     0.06397    3.12723   13.03858    5.08182
     215      444        5     0.05380    2.04104   11.90850    3.27939
     216      444        4     0.32394    5.20489   10.26725    0.30604
     217      444        4     0.31748    3.54529    8.85455    1.84282
     218      444        4     0.32478    4.93342   16.36163    0.41918
     219      444        5     0.06376    3.30377   13.22277    1.69921
     220      444        5     0.05404    4.38257   14.36007    3.50171
     221      444        4     0.32385    0.10052   13.79012    7.08714
     222      444        4     0.31751   -1.23487   12.06748    8.62408
     223      444        4     0.32473    6.20101   13.79850    7.20068
     224      444        5     0.06409    3.13962   12.02637    8.48110
     225      444        5     0.05381    4.22575   13.15646   10.28347
     226      444        4     0.32315    1.06186   14.79756   13.25684
     227      444        4     0.31759    2.72140   16.21030   11.72007
     228      444        4     0.32442    1.33332    8.70316   13.14371
     229      444        5     0.06435    2.96309   11.84216   11.86363
     230      444        5     0.05398    1.88435   10.70487   10.06119
     231      444        5     0.03338    1.97026   14.32008    3.39033
     232      444        5     0.09078    4.44327   11.95804    3.39076
     233      444        5     0.03345    4.29666   10.74493   10.17255
     234      444        5     0.09075    1.82361   13.10681   10.17212
     235      444        6    -0.67558    5.23876   10.56296    6.27488
     236      444        6    -0.67588    7.45602   13.25144    3.77993
     237      444        6    -0.69117    0.96654   10.55019    6.06797
     238      444        7    -0.40797    3.19995   11.86316    4.19151
     239      444        7    -0.18783    3.13666   14.30251    4.30360
     240      444        6    -0.67595    5.87368   11.22611    0.50714
     241      444        6    -0.67571    3.28940    8.88899    3.00166
     242      444        6    -0.69139    5.68991   15.49441    0.71324
     243      444        7    -0.40792    4.48104   13.20426    2.58987
     244      444        7    -0.18769    2.04153   13.15559    2.47723
     245      444        6    -0.67587    1.02798   14.50187    7.28796
     246      444        6    -0.67576   -1.18921   11.81331    9.78291
     247      444        6    -0.69127    5.30022   14.51463    7.49491
     248      444        7    -0.40825    3.06687   13.20186    9.37133
     249      444        7    -0.18782    3.13027   10.76243    9.25926
     250      444        6    -0.67521    0.39309   13.83869   13.05570
     251      444        6    -0.67595    2.97727   16.17588   10.56122
     252      444        6    -0.69103    0.57684    9.57041   12.84964
     253      444        7    -0.40801    1.78578   11.86062   10.97305
     254      444        7    -0.18810    4.22539   11.90940   11.08568
     255      444        8    -0.87821    2.54866    8.80327    7.68173
     256      444        8    -0.87803    6.15646   12.58111   12.66230
     257      444        8    -0.87806    3.71836   16.26178    5.88114
     258      444        8    -0.87836    0.11054   12.48399    0.90058
     259      444        1     1.49518    1.84773    8.18984   18.93869
     260      444        1     1.49530    5.38700   11.89461   14.96833
     261      444        1     1.49534    1.71564   14.04846   21.74962
     262      444        1     1.49516   -1.82353   10.34360   25.71996
     263      444        2    -0.81704    6.19954   11.11911   20.34417
     264      444        2    -0.81696    2.25477   16.23876   13.56273
     265      444        3     0.08220    2.64612   11.62293   19.31131
     266      444        3     0.08264    0.85021   11.58466   19.22851
     267      444        3     0.09818   -0.23799   10.44775   17.42511
     268      444        3     0.09080    0.74521    9.63571   16.16240
     269      444        3     0.10283    0.63629   13.83430   16.36729
     270      444        3     0.08776    3.14598    9.68899   16.27460
     271      444        3     0.43236    0.23540    7.54412   21.13169
     272      444        3     0.30752    1.51928    8.16566   21.89123
     273      444        3     0.08224    1.99447   10.93980   14.59536
     274      444        3     0.08272    1.95034   12.73568   14.67794
     275      444        3     0.09812    3.03574   13.87512   16.48121
     276      444        3     0.09084    3.89194   12.93052   17.74428
     277      444        3     0.10264   -0.30735   12.84676   17.53862
     278      444        3     0.08769    3.94876   10.52975   17.63255
     279      444        3     0.43236    4.60706   12.12142   26.33718
     280      444        3     0.30750    4.04438   10.80998   25.57882
     281      444        3     0.08212    0.91736   10.61536   21.37705
     282      444        3     0.08254    2.71323   10.65373   21.45984
     283      444        3     0.09832    3.80138   11.79065   23.26322
     284      444        3     0.09068    2.81820   12.60266   24.52591
     285      444        3     0.10294    2.92727    8.40408   24.32106
     286      444        3     0.08780    0.41740   12.54925   24.41372
     287      444        3     0.43239    3.32823   14.69437   19.55670
     288      444        3     0.30737    2.04436   14.07277   18.79715
     289      444        3     0.08199    1.56897   11.29849   26.09297
     290      444        3     0.08266    1.61319    9.50265   26.01039
     291      444        3     0.09820    0.52781    8.36316   24.20712
     292      444        3     0.09067   -0.32840    9.30774   22.94407
     293      444        3     0.10265    3.87086    9.39164   23.14973
     294      444        3     0.08790   -0.38531   11.70848   23.05582
     295      444        3     0.43252   -1.04344   10.11707   14.35117
     296      444        3     0.30745   -0.48079   11.42856   15.10956
     297      444        4     0.32356    4.81454    9.86139   20.03845
     298      444        4     0.31756    6.14995   11.58400   18.50151
     299      444        4     0.32468   -1.28597    9.85299   19.92491
     300      444        5     0.06397    1.77554   11.62528   18.64455
     301      444        5     0.05380    0.68934   10.49519   16.84212
     302      444        4     0.32394    3.85319    8.85395   13.86877
     303      444        4     0.31748    2.19360    7.44125   15.40555
     304      444        4     0.32478    3.58172   14.94833   13.98192
     305      444        5     0.06376    1.95207   11.80947   15.26194
     306      444        5     0.05404    3.03088   12.94677   17.06444
     307      444        4     0.32385   -1.25118   12.37682   20.64987
     308      444        4     0.31751   -2.58657   10.65418   22.18681
     309      444        4     0.32473    4.84931   12.38520   20.76342
     310      444        5     0.06409    1.78792   10.61306   22.04383
     311      444        5     0.05381    2.87405   11.74316   23.84620
     312      444        4     0.32315   -0.28983   13.38426   26.81957
     313      444        4     0.31759    1.36971   14.79699   25.28280
     314      444        4     0.32442   -0.01838    7.28986   26.70644
     315      444        5     0.06435    1.61139   10.42885   25.42637
     316      444        5     0.05398    0.53265    9.29156   23.62392
     317      444        5     0.03338    0.61856   12.90677   16.95306
     318      444        5     0.09078    3.09157   10.54473   16.95350
     319      444        5     0.03345    2.94497    9.33163   23.73528
     320      444        5     0.09075    0.47191   11.69351   23.73485
     321      444        6    -0.67558    3.88707    9.14966   19.83761
     322      444        6    -0.67588    6.10433   11.83814   17.34267
     323      444        6    -0.69117   -0.38516    9.13689   19.63070
     324      444        7    -0.40797    1.84825   10.44985   17.75424
     325      444        7    -0.18783    1.78496   12.88921   17.86634
     326      444        6    -0.67595    4.52198    9.81281   14.06987
     327      444        6    -0.67571    1.93770    7.47569   16.56439
     328      444        6    -0.69139    4.33822   14.08111   14.27597
     329      444        7    -0.40792    3.12934   11.79095   16.15260
     330      444        7    -0.18769    0.68983   11.74229   16.03996
     331      444        6    -0.67587   -0.32372   13.08857   20.85069
     332      444        6    -0.67576   -2.54091   10.40000   23.34564
     333      444        6    -0.69127    3.94852   13.10132   21.05765
     334      444        7    -0.40825    1.71518   11.78855   22.93406
     335      444        7    -0.18782    1.77857    9.34912   22.82200
     336      444        6    -0.67521   -0.95860   12.42539   26.61843
     337      444        6    -0.67595    1.62557   14.76257   24.12395
     338      444        6    -0.69103   -0.77486    8.15710   26.41238
     339      444        7    -0.40801    0.43408   10.44732   24.53578
     340      444        7    -0.18810    2.87370   10.49610   24.64841
     341      444        8    -0.87821    1.19697    7.38997   21.24446
     342      444        8    -0.87803    4.80476   11.16780   26.22503
     343      444        8    -0.87806    2.36666   14.84847   19.44387
     344      444        8    -0.87836   -1.24115   11.07069   14.46331
     345      444        1     1.49518    2.79400   18.42933    5.37595
     346      444        1     1.49530    6.33327   22.13411    1.40560
     347      444        1     1.49534    2.66192   24.28796    8.18689
     348      444        1     1.49516   -0.87725   20.58310   12.15723
     349      444        2    -0.81704    7.14581   21.35861    6.78143
     350      444        2    -0.81696    3.20104   26.47826    0.00000
     351      444        3     0.08220    3.59239   21.86243    5.74858
     352      444        3     0.08264    1.79648   21.82416    5.66578
     353      444        3     0.09818    0.70828   20.68725    3.86238
     354      444        3     0.09080    1.69148   19.87521    2.59966
     355      444        3     0.10283    1.58256   24.07380    2.80456
     356      444        3     0.08776    4.09225   19.92849    2.71187
     357      444        3     0.43236    1.18167   17.78362    7.56895
     358      444        3     0.30752    2.46555   18.40516    8.32849
     359      444        3     0.08224    2.94074   21.17930    1.03263
     360      444        3     0.08272    2.89661   22.97518    1.11521
     361      444        3     0.09812    3.98201   24.11462    2.91848
     362      444        3     0.09084    4.83822   23.17002    4.18155
     363      444        3     0.10264    0.63892   23.08626    3.97589
     364      444        3     0.08769    4.89503   20.76925    4.06982
     365      444        3     0.43236    5.55334   22.36092   12.77445
     366      444        3     0.30750    4.99065   21.04948   12.01609
     367      444        3     0.08212    1.86363   20.85486    7.81432