Created on Tue Feb 06 15:34:19 2018 

        1728 atoms
        2112 bonds
        3968 angles
        3584 dihedrals
        2688 impropers

           5 atom types
           5 bond types
          10 angle types
           2 dihedral types
           1 improper types
           0.000000  35.110000 xlo xhi
           0.000000  35.053822 ylo yhi
           0.000000  31.826000 zlo zhi
          -1.593011   0.000555   0.000025 xy xz yz

Masses

    1   112.411000000 # Cd3+2
    2     1.007940000 # H_
    3    12.010700000 # C_R
    4    14.006700000 # N_R
    5    35.453000000 # Cl

Bond Coeffs

    1      152.700732        2.089900  # Cd3+2 N_R
    2       92.558213        2.404333  # Cd3+2 Cl
    3      357.440381        1.081418  # H_ C_R
    4      663.718927        1.345073  # C_R N_R
    5      929.109299        1.322497  # N_R N_R

Angle Coeffs

    1                      fourier       21.109547        0.343737        0.374972        0.281246 # Cl Cd3+2 N_R
    2                      fourier       33.010492        0.343737        0.374972        0.281246 # N_R Cd3+2 N_R
    3                      fourier       13.953037        0.343737        0.374972        0.281246 # Cl Cd3+2 Cl
    4              cosine/periodic      109.704024              -1               3 # H_ C_R N_R
    5              cosine/periodic      234.844275              -1               3 # N_R C_R N_R
    6              cosine/periodic       33.294741              -1               3 # Cd3+2 N_R C_R
    7              cosine/periodic       45.744975              -1               3 # Cd3+2 N_R N_R
    8              cosine/periodic      184.094783              -1               3 # C_R N_R N_R
    9              cosine/periodic      132.654363              -1               3 # C_R N_R C_R
   10              cosine/periodic        2.812883               1               1 # Cd3+2 Cl Cd3+2

Dihedral Coeffs

    1        1.497136              -1               2 # H_ C_R N_R Cd3+2
    2        2.245703              -1               2 # H_ C_R N_R N_R

Improper Coeffs

    1        2.000000        1.000000       -1.000000        0.000000               0 # H_ C_R N_R N_R

Pair Coeffs

    1        0.228000        2.537280 # Cd3+2 Cd3+2
    2        0.044000        2.571134 # H_ H_
    3        0.105000        3.430851 # C_R C_R
    4        0.069000        3.260689 # N_R N_R
    5        0.227000        3.516377 # Cl Cl

Atoms

       1      444        1     0.89711    8.13422    0.61297    5.10250
       2      444        1     0.89711    7.73601    9.37625    5.10250
       3      444        1     0.89711   16.91190    0.61297    5.10250
       4      444        1     0.89711   16.51369    9.37625    5.10250
       5      444        1     0.84026    2.77827    5.72797    2.98162
       6      444        1     0.84026    2.38006   14.49125    2.98162
       7      444        1     0.84026   11.55595    5.72797    2.98162
       8      444        1     0.84026   11.15774   14.49125    2.98162
       9      444        1     0.84026    5.47940    3.14938    4.30829
      10      444        1     0.84026    5.08121   11.91266    4.30829
      11      444        1     0.84026   14.25707    3.14938    4.30829
      12      444        1     0.84026   13.85886   11.91266    4.30829
      13      444        1     0.89711    0.24551    8.14994   13.05869
      14      444        1     0.89711   -0.15270   16.91322   13.05869
      15      444        1     0.89711    9.02317    8.14994   13.05869
      16      444        1     0.89711    8.62498   16.91322   13.05869
      17      444        1     0.84026    5.60136    3.03502   10.93812
      18      444        1     0.84026    5.20317   11.79830   10.93812
      19      444        1     0.84026   14.37904    3.03502   10.93812
      20      444        1     0.84026   13.98083   11.79830   10.93812
      21      444        1     0.84026    2.90028    5.61358   12.26415
      22      444        1     0.84026    2.50209   14.37686   12.26415
      23      444        1     0.84026   11.67796    5.61358   12.26415
      24      444        1     0.84026   11.27975   14.37686   12.26415
      25      444        2     0.06997    5.79958    6.63071    4.09935
      26      444        2     0.06997    5.40137   15.39401    4.09919
      27      444        2     0.06997   14.57725    6.63071    4.09935
      28      444        2     0.06997   14.17904   15.39401    4.09935
      29      444        2     0.06997    3.21856    0.60480    2.99037
      30      444        2     0.06997    2.82036    9.36810    2.99037
      31      444        2     0.06997   11.99623    0.60480    2.99037
      32      444        2     0.06997   11.59802    9.36810    2.99037
      33      444        2     0.06997    2.57994    2.13219   12.05521
      34      444        2     0.06997    2.18175   10.89549   12.05521
      35      444        2     0.06997   11.35762    2.13219   12.05521
      36      444        2     0.06997   10.95941   10.89549   12.05521
      37      444        2     0.06997    5.16109    8.15821   10.94639
      38      444        2     0.06997    4.76289   16.92149   10.94639
      39      444        2     0.06997   13.93875    8.15821   10.94639
      40      444        2     0.06997   13.54054   16.92150   10.94639
      41      444        2     0.06997    6.37100    6.09394   12.05442
      42      444        2     0.06997    5.97279   14.85722   12.05442
      43      444        2     0.06997   15.14868    6.09396   12.05442
      44      444        2     0.06997   14.75047   14.85724   12.05442
      45      444        2     0.06997    0.45802    3.23574   10.94846
      46      444        2     0.06997    0.05983   11.99902   10.94846
      47      444        2     0.06997    9.23569    3.23574   10.94846
      48      444        2     0.06997    8.83750   11.99902   10.94846
      49      444        2     0.06997    2.00872    2.66916    4.09855
      50      444        2     0.06997    1.61051   11.43244    4.09855
      51      444        2     0.06997   10.78638    2.66916    4.09855
      52      444        2     0.06997   10.38819   11.43244    4.09855
      53      444        2     0.06997    7.92158    5.52720    2.99228
      54      444        2     0.06997    7.52339   14.29050    2.99228
      55      444        2     0.06997   16.69926    5.52722    2.99228
      56      444        2     0.06997   16.30105   14.29050    2.99228
      57      444        2     0.06997    4.90467    3.70572    7.70746
      58      444        2     0.06997    4.50646   12.46900    7.70746
      59      444        2     0.06997   13.68233    3.70572    7.70746
      60      444        2     0.06997   13.28413   12.46900    7.70746
      61      444        2     0.06997    7.82932    0.89961    8.82153
      62      444        2     0.06997    7.43113    9.66289    8.82153
      63      444        2     0.06997   16.60701    0.89963    8.82153
      64      444        2     0.06997   16.20878    9.66289    8.82153
      65      444        2     0.06997    3.47526    5.05717   15.66348
      66      444        2     0.06997    3.07705   13.82045   15.66348
      67      444        2     0.06997   12.25293    5.05717   15.66348
      68      444        2     0.06997   11.85473   13.82045   15.66348
      69      444        2     0.06997    0.55026    7.86334    0.86487
      70      444        2     0.06997    0.15205   16.62662    0.86487
      71      444        2     0.06997    9.32792    7.86334    0.86487
      72      444        2     0.06997    8.92971   16.62662    0.86487
      73      444        3     0.27550    5.26757    7.55286    3.89932
      74      444        3     0.27550    4.86936   16.31614    3.89932
      75      444        3     0.27550   14.04524    7.55286    3.89932
      76      444        3     0.27550   13.64703   16.31615    3.89932
      77      444        3     0.27550    4.14962    0.17960    3.34523
      78      444        3     0.27550    3.75143    8.94290    3.34523
      79      444        3     0.27550   12.92730    0.17960    3.34523
      80      444        3     0.27550   12.52911    8.94290    3.34523
      81      444        3     0.27550    3.11202    1.21007   11.85534
      82      444        3     0.27550    2.71380    9.97337   11.85534
      83      444        3     0.27550   11.88969    1.21008   11.85534
      84      444        3     0.27550   11.49146    9.97337   11.85534
      85      444        3     0.27550    4.23001    8.58338   11.30125
      86      444        3     0.27550    3.83180   17.34667   11.30125
      87      444        3     0.27550   13.00766    8.58339   11.30125
      88      444        3     0.27550   12.60946   17.34667   11.30125
      89      444        3     0.27550    7.31540    5.60229   11.85359
      90      444        3     0.27550    6.91719   14.36559   11.85359
      91      444        3     0.27550   16.09306    5.60231   11.85359
      92      444        3     0.27550   15.69486   14.36559   11.85487
      93      444        3     0.27550   -0.00730    4.14768   11.30141
      94      444        3     0.27550   -0.40551   12.91096   11.30141
      95      444        3     0.27550    8.77036    4.14768   11.30269
      96      444        3     0.27550    8.37217   12.91096   11.30141
      97      444        3     0.27550    1.06430    3.16074    3.89900
      98      444        3     0.27550    0.66611   11.92402    3.89900
      99      444        3     0.27550    9.84198    3.16074    3.89900
     100      444        3     0.27550    9.44378   11.92402    3.89900
     101      444        3     0.27550    8.38697    4.61528    3.34650
     102      444        3     0.27550    7.98876   13.37857    3.34650
     103      444        3     0.27550   17.16462    4.61529    3.34650
     104      444        3     0.27550   16.76643   13.37857    3.34650
     105      444        3     0.27550    5.68741    2.95506    7.66911
     106      444        3     0.27550    5.28920   11.71834    7.66911
     107      444        3     0.27550   14.46507    2.95504    7.66911
     108      444        3     0.27550   14.06686   11.71834    7.66911
     109      444        3     0.27550    7.16947    1.53303    8.23721
     110      444        3     0.27550    6.77128   10.29633    8.23721
     111      444        3     0.27550   15.94715    1.53305    8.23721
     112      444        3     0.27550   15.54894   10.29631    8.23721
     113      444        3     0.27550    2.69251    5.80783   15.62513
     114      444        3     0.27550    2.29430   14.57111   15.62513
     115      444        3     0.27550   11.47019    5.80785   15.62513
     116      444        3     0.27550   11.07198   14.57111   15.62513
     117      444        3     0.27550    1.21012    7.22989    0.28007
     118      444        3     0.27550    0.81191   15.99317    0.28007
     119      444        3     0.27550    9.98778    7.22989    0.28007
     120      444        3     0.27550    9.58959   15.99317    0.28007
     121      444        4    -0.27640    6.15736    0.00174    4.14931
     122      444        4    -0.27640    5.75917    8.76502    4.14931
     123      444        4    -0.27640   14.93503    0.00174    4.14931
     124      444        4    -0.27640   14.53682    8.76502    4.14931
     125      444        4    -0.27640    5.17483    0.90567    3.79366
     126      444        4    -0.27640    4.77664    9.66895    3.79366
     127      444        4    -0.27640   13.95251    0.90567    3.79366
     128      444        4    -0.27640   13.55432    9.66895    3.79366
     129      444        4    -0.45321    4.01411    7.61352    3.39472
     130      444        4    -0.45321    3.61590   16.37680    3.39472
     131      444        4    -0.45321   12.79179    7.61352    3.39472
     132      444        4    -0.45321   12.39358   16.37682    3.39472
     133      444        4    -0.27640    2.22225    8.76119   12.10534
     134      444        4    -0.27640    1.82404   17.52447   12.10534
     135      444        4    -0.27640   10.99991    8.76119   12.10534
     136      444        4    -0.27640   10.60172   17.52447   12.10534
     137      444        4    -0.27640    3.20480    7.85727   11.75032
     138      444        4    -0.27640    2.80659   16.62057   11.75032
     139      444        4    -0.27640   11.98246    7.85729   11.75032
     140      444        4    -0.27640   11.58426   16.62057   11.75032
     141      444        4    -0.45321    4.36548    1.14946   11.35074
     142      444        4    -0.45321    3.96727    9.91274   11.35074
     143      444        4    -0.45321   13.14316    1.14946   11.35074
     144      444        4    -0.45321   12.74493    9.91274   11.35074
     145      444        4    -0.27640   -0.27286    6.14635   12.10550
     146      444        4    -0.27640   -0.67105   14.90963   12.10550
     147      444        4    -0.27640    8.50482    6.14635   12.10550
     148      444        4    -0.27640    8.10661   14.90963   12.10550
     149      444        4    -0.27640    0.67315    5.20396   11.75127
     150      444        4    -0.27640    0.27494   13.96724   11.75127
     151      444        4    -0.27640    9.45081    5.20396   11.75127
     152      444        4    -0.27640    9.05262   13.96724   11.75127
     153      444        4    -0.45321    7.43079    4.35210   11.35186
     154      444        4    -0.45321    7.03258   13.11538   11.35074
     155      444        4    -0.45321   16.20846    4.35210   11.35186
     156      444        4    -0.45321   15.81025   13.11538   11.35074
     157      444        4    -0.27640    8.65257    2.61667    4.14947
     158      444        4    -0.27640    8.25437   11.37996    4.14947
     159      444        4    -0.27640   17.43024    2.61668    4.14947
     160      444        4    -0.27640   17.03203   11.37996    4.14947
     161      444        4    -0.27640    7.70655    3.55902    3.79525
     162      444        4    -0.27640    7.30834   12.32230    3.79525
     163      444        4    -0.27640   16.48422    3.55902    3.79541
     164      444        4    -0.27640   16.08601   12.32230    3.79541
     165      444        4    -0.45321    0.94888    4.41093    3.39568
     166      444        4    -0.45321    0.55067   13.17421    3.39568
     167      444        4    -0.45321    9.72656    4.41091    3.39568
     168      444        4    -0.45321    9.32835   13.17421    3.39568
     169      444        4    -0.27640    6.18721    2.47579    6.53181
     170      444        4    -0.27640    5.78900   11.23907    6.53181
     171      444        4    -0.27640   14.96487    2.47579    6.53181
     172      444        4    -0.27640   14.56668   11.23907    6.53181
     173      444        4    -0.27640    7.14963    1.55240    6.89972
     174      444        4    -0.27640    6.75143   10.31570    6.89972
     175      444        4    -0.27640   15.92730    1.55242    6.89972
     176      444        4    -0.27640   15.52909   10.31570    6.89972
     177      444        4    -0.45321    6.26925    2.39664    8.76345
     178      444        4    -0.45321    5.87106   11.15992    8.76345
     179      444        4    -0.45321   15.04693    2.39664    8.76345
     180      444        4    -0.45321   14.64872   11.15992    8.76345
     181      444        4    -0.27640    2.19269    6.28707   14.48783
     182      444        4    -0.27640    1.79448   15.05035   14.48783
     183      444        4    -0.27640   10.97037    6.28707   14.48783
     184      444        4    -0.27640   10.57216   15.05035   14.48783
     185      444        4    -0.27640    1.23027    7.21044   14.85574
     186      444        4    -0.27640    0.83206   15.97372   14.85574
     187      444        4    -0.27640   10.00793    7.21044   14.85574
     188      444        4    -0.27640    9.60974   15.97372   14.85574
     189      444        4    -0.45321    2.11034    6.36632    0.80679
     190      444        4    -0.45321    1.71214   15.12958    0.80679
     191      444        4    -0.45321   10.88802    6.36632    0.80679
     192      444        4    -0.45321   10.48981   15.12960    0.80679
     193      444        5    -0.53434    0.66691    7.75594    4.55892
     194      444        5    -0.53434    0.26868   16.51922    4.55892
     195      444        5    -0.53434    9.44457    7.75592    4.55892
     196      444        5    -0.53434    9.04636   16.51922    4.55892
     197      444        5    -0.56375    3.81310    4.73590    5.37637
     198      444        5    -0.56375    3.41489   13.49918    5.37637
     199      444        5    -0.56375   12.59075    4.73590    5.37637
     200      444        5    -0.56375   12.19256   13.49918    5.37637
     201      444        5    -0.56375    4.54059    4.04444    2.01188
     202      444        5    -0.56375    4.14238   12.80772    2.01188
     203      444        5    -0.56375   13.31826    4.04444    2.01188
     204      444        5    -0.56375   12.92005   12.80772    2.01188
     205      444        5    -0.53434    7.71282    1.00691   12.51478
     206      444        5    -0.53434    7.31459    9.77021   12.51478
     207      444        5    -0.53434   16.49050    1.00691   12.51478
     208      444        5    -0.53434   16.09227    9.77019   12.51478
     209      444        5    -0.56375    4.56656    4.02701   13.33255
     210      444        5    -0.56375    4.16836   12.79029   13.33255
     211      444        5    -0.56375   13.34423    4.02703   13.33255
     212      444        5    -0.56375   12.94602   12.79031   13.33255
     213      444        5    -0.56375    3.83919    4.71862    9.96806
     214      444        5    -0.56375    3.44098   13.48190    9.96806
     215      444        5    -0.56375   12.61685    4.71862    9.96806
     216      444        5    -0.56375   12.21865   13.48190    9.96806
     217      444        1     0.89711    8.13450    0.61299   21.01550
     218      444        1     0.89711    7.73629    9.37627   21.01550
     219      444        1     0.89711   16.91217    0.61299   21.01550
     220      444        1     0.89711   16.51396    9.37627   21.01550
     221      444        1     0.84026    2.77855    5.72798   18.89462
     222      444        1     0.84026    2.38034   14.49126   18.89462
     223      444        1     0.84026   11.55622    5.72798   18.89462
     224      444        1     0.84026   11.15801   14.49126   18.89462
     225      444        1     0.84026    5.47968    3.14939   20.22129
     226      444        1     0.84026    5.08148   11.91267   20.22129
     227      444        1     0.84026   14.25735    3.14939   20.22129
     228      444        1     0.84026   13.85914   11.91267   20.22129
     229      444        1     0.89711    0.24579    8.14995   28.97169
     230      444        1     0.89711   -0.15242   16.91323   28.97169
     231      444        1     0.89711    9.02345    8.14995   28.97169
     232      444        1     0.89711    8.62525   16.91323   28.97169
     233      444        1     0.84026    5.60164    3.03503   26.85112
     234      444        1     0.84026    5.20345   11.79831   26.85112
     235      444        1     0.84026   14.37932    3.03503   26.85112
     236      444        1     0.84026   13.98111   11.79831   26.85112
     237      444        1     0.84026    2.90056    5.61359   28.17715
     238      444        1     0.84026    2.50237   14.37687   28.17715
     239      444        1     0.84026   11.67824    5.61359   28.17715
     240      444        1     0.84026   11.28003   14.37687   28.17715
     241      444        2     0.06997    5.79986    6.63073   20.01235
     242      444        2     0.06997    5.40164   15.39402   20.01219
     243      444        2     0.06997   14.57753    6.63073   20.01235
     244      444        2     0.06997   14.17932   15.39402   20.01235
     245      444        2     0.06997    3.21883    0.60482   18.90337
     246      444        2     0.06997    2.82064    9.36811   18.90337
     247      444        2     0.06997   11.99651    0.60482   18.90337
     248      444        2     0.06997   11.59830    9.36811   18.90337
     249      444        2     0.06997    2.58022    2.13221   27.96821
     250      444        2     0.06997    2.18203   10.89550   27.96821
     251      444        2     0.06997   11.35790    2.13221   27.96821
     252      444        2     0.06997   10.95969   10.89550   27.96821
     253      444        2     0.06997    5.16137    8.15822   26.85939
     254      444        2     0.06997    4.76316   16.92150   26.85939
     255      444        2     0.06997   13.93903    8.15822   26.85939
     256      444        2     0.06997   13.54082   16.92152   26.85939
     257      444        2     0.06997    6.37128    6.09395   27.96742
     258      444        2     0.06997    5.97307   14.85723   27.96742
     259      444        2     0.06997   15.14895    6.09397   27.96742
     260      444        2     0.06997   14.75074   14.85725   27.96742
     261      444        2     0.06997    0.45830    3.23575   26.86146
     262      444        2     0.06997    0.06010   11.99903   26.86146
     263      444        2     0.06997    9.23597    3.23575   26.86146
     264      444        2     0.06997    8.83778   11.99903   26.86146
     265      444        2     0.06997    2.00900    2.66917   20.01155
     266      444        2     0.06997    1.61079   11.43245   20.01155
     267      444        2     0.06997   10.78666    2.66917   20.01155
     268      444        2     0.06997   10.38846   11.43245   20.01155
     269      444        2     0.06997    7.92186    5.52721   18.90528
     270      444        2     0.06997    7.52367   14.29051   18.90528
     271      444        2     0.06997   16.69954    5.52723   18.90528
     272      444        2     0.06997   16.30133   14.29051   18.90528
     273      444        2     0.06997    4.90495    3.70573   23.62046
     274      444        2     0.06997    4.50674   12.46901   23.62046
     275      444        2     0.06997   13.68260    3.70573   23.62046
     276      444        2     0.06997   13.28441   12.46901   23.62046
     277      444        2     0.06997    7.82960    0.89962   24.73453
     278      444        2     0.06997    7.43140    9.66290   24.73453
     279      444        2     0.06997   16.60729    0.89964   24.73453
     280      444        2     0.06997   16.20906    9.66290   24.73453
     281      444        2     0.06997    3.47554    5.05719   31.57648
     282      444        2     0.06997    3.07733   13.82047   31.57648
     283      444        2     0.06997   12.25321    5.05719   31.57648
     284      444        2     0.06997   11.85500   13.82047   31.57648
     285      444        2     0.06997    0.55054    7.86336   16.77787
     286      444        2     0.06997    0.15233   16.62664   16.77787
     287      444        2     0.06997    9.32820    7.86336   16.77787
     288      444        2     0.06997    8.92999   16.62664   16.77787
     289      444        3     0.27550    5.26784    7.55287   19.81232
     290      444        3     0.27550    4.86963   16.31615   19.81232
     291      444        3     0.27550   14.04552    7.55287   19.81232
     292      444        3     0.27550   13.64731   16.31617   19.81232
     293      444        3     0.27550    4.14990    0.17961   19.25823
     294      444        3     0.27550    3.75171    8.94291   19.25823
     295      444        3     0.27550   12.92758    0.17961   19.25823
     296      444        3     0.27550   12.52938    8.94291   19.25823
     297      444        3     0.27550    3.11229    1.21008   27.76834
     298      444        3     0.27550    2.71408    9.97338   27.76834
     299      444        3     0.27550   11.88997    1.21010   27.76834
     300      444        3     0.27550   11.49174    9.97338   27.76834
     301      444        3     0.27550    4.23029    8.58339   27.21425
     302      444        3     0.27550    3.83208   17.34669   27.21425
     303      444        3     0.27550   13.00794    8.58341   27.21425
     304      444        3     0.27550   12.60973   17.34669   27.21425
     305      444        3     0.27550    7.31568    5.60231   27.76659
     306      444        3     0.27550    6.91747   14.36560   27.76659
     307      444        3     0.27550   16.09333    5.60232   27.76659
     308      444        3     0.27550   15.69514   14.36560   27.76787
     309      444        3     0.27550   -0.00702    4.14769   27.21441
     310      444        3     0.27550   -0.40523   12.91098   27.21441
     311      444        3     0.27550    8.77064    4.14769   27.21569
     312      444        3     0.27550    8.37244   12.91098   27.21441
     313      444        3     0.27550    1.06458    3.16075   19.81200
     314      444        3     0.27550    0.66639   11.92403   19.81200
     315      444        3     0.27550    9.84225    3.16075   19.81200
     316      444        3     0.27550    9.44406   11.92403   19.81200
     317      444        3     0.27550    8.38724    4.61529   19.25950
     318      444        3     0.27550    7.98903   13.37859   19.25950
     319      444        3     0.27550   17.16490    4.61531   19.25950
     320      444        3     0.27550   16.76671   13.37859   19.25950
     321      444        3     0.27550    5.68769    2.95507   23.58211
     322      444        3     0.27550    5.28948   11.71835   23.58211
     323      444        3     0.27550   14.46535    2.95506   23.58211
     324      444        3     0.27550   14.06714   11.71835   23.58211
     325      444        3     0.27550    7.16975    1.53305   24.15021
     326      444        3     0.27550    6.77156   10.29634   24.15021
     327      444        3     0.27550   15.94743    1.53306   24.15021
     328      444        3     0.27550   15.54922   10.29633   24.15021
     329      444        3     0.27550    2.69279    5.80785   31.53813
     330      444        3     0.27550    2.29458   14.57113   31.53813
     331      444        3     0.27550   11.47046    5.80786   31.53813
     332      444        3     0.27550   11.07226   14.57113   31.53813
     333      444        3     0.27550    1.21040    7.22990   16.19307
     334      444        3     0.27550    0.81219   15.99318   16.19307
     335      444        3     0.27550    9.98806    7.22990   16.19307
     336      444        3     0.27550    9.58987   15.99318   16.19307
     337      444        4    -0.27640    6.15763    0.00175   20.06231
     338      444        4    -0.27640    5.75944    8.76503   20.06231
     339      444        4    -0.27640   14.93531    0.00175   20.06231
     340      444        4    -0.27640   14.53710    8.76503   20.06231
     341      444        4    -0.27640    5.17511    0.90568   19.70666
     342      444        4    -0.27640    4.77692    9.66896   19.70666
     343      444        4    -0.27640   13.95279    0.90568   19.70666
     344      444        4    -0.27640   13.55459    9.66896   19.70666
     345      444        4    -0.45321    4.01439    7.61353   19.30772
     346      444        4    -0.45321    3.61618   16.37681   19.30772
     347      444        4    -0.45321   12.79207    7.61353   19.30772
     348      444        4    -0.45321   12.39386   16.37683   19.30772
     349      444        4    -0.27640    2.22253    8.76120   28.01834
     350      444        4    -0.27640    1.82432   17.52448   28.01834
     351      444        4    -0.27640   11.00019    8.76120   28.01834
     352      444        4    -0.27640   10.60199   17.52448   28.01834
     353      444        4    -0.27640    3.20508    7.85728   27.66332
     354      444        4    -0.27640    2.80687   16.62058   27.66332
     355      444        4    -0.27640   11.98273    7.85730   27.66332
     356      444        4    -0.27640   11.58454   16.62058   27.66332
     357      444        4    -0.45321    4.36576    1.14947   27.26374
     358      444        4    -0.45321    3.96755    9.91275   27.26374
     359      444        4    -0.45321   13.14344    1.14947   27.26374
     360      444        4    -0.45321   12.74521    9.91275   27.26374
     361      444        4    -0.27640   -0.27258    6.14636   28.01850
     362      444        4    -0.27640   -0.67077   14.90964   28.01850
     363      444        4    -0.27640    8.50510    6.14636   28.01850
     364      444        4    -0.27640    8.10689   14.90964   28.01850
     365      444        4    -0.27640    0.67343    5.20397   27.66427
     366      444        4    -0.27640    0.27522   13.96725   27.66427
     367      444        4    -0.27640    9.45109    5.20397   27.66427
     368      444        4    -0.27640    9.05289   13.96725   27.66427
     369      444        4    -0.45321    7.43106    4.35211   27.26486
     370      444        4    -0.45321    7.03285   13.11539   27.26374
     371      444        4    -0.45321   16.20874    4.35211   27.26486
     372      444        4    -0.45321   15.81053   13.11539   27.26374
     373      444        4    -0.27640    8.65285    2.61668   20.06247
     374      444        4    -0.27640    8.25465   11.37998   20.06247
     375      444        4    -0.27640   17.43052    2.61670   20.06247
     376      444        4    -0.27640   17.03231   11.37998   20.06247
     377      444        4    -0.27640    7.70683    3.55903   19.70825
     378      444        4    -0.27640    7.30862   12.32231   19.70825
     379      444        4    -0.27640   16.48450    3.55903   19.70841
     380      444        4    -0.27640   16.08629   12.32231   19.70841
     381      444        4    -0.45321    0.94916    4.41094   19.30868
     382      444        4    -0.45321    0.55095   13.17422   19.30868