Created on Tue Feb 06 14:08:45 2018 

        1792 atoms
        2112 bonds
        3776 angles
        3712 dihedrals
        2304 impropers

           5 atom types
           7 bond types
          11 angle types
           3 dihedral types
           1 improper types
           0.000000  29.130000 xlo xhi
           0.000000  31.710000 ylo yhi
           0.000000  37.711016 zlo zhi
          -0.002214  -0.075034  -0.261965 xy xz yz

Masses

    1    65.380000000 # Zn4+2
    2     1.007940000 # H_
    3    12.010700000 # C_R
    4    15.999400000 # O_3_z
    5    15.999400000 # O_R

Bond Coeffs

    1      160.882159        1.838011  # Zn4+2 O_3_z
    2      127.647979        1.985391  # Zn4+2 O_R
    3      850.878848        0.861362  # H_ O_3_z
    4      357.440381        1.081418  # H_ C_R
    5      391.669513        1.458000  # C_R C_R
    6      646.680887        1.311940  # C_R O_R
    7      462.655054        1.379256  # C_R C_R

Angle Coeffs

    1              cosine/periodic       72.700368               1               4 # O_3_z Zn4+2 O_R
    2              cosine/periodic       60.397389               1               4 # O_R Zn4+2 O_R
    3              cosine/periodic       88.819447               1               4 # O_3_z Zn4+2 O_3_z
    4              cosine/periodic      217.450257              -1               3 # O_R C_R O_R
    5              cosine/periodic      137.761490              -1               3 # C_R C_R O_R
    6              cosine/periodic      117.010657              -1               3 # C_R C_R C_R
    7              cosine/periodic      101.626578              -1               3 # C_R C_R C_R
    8              cosine/periodic       76.817955              -1               3 # H_ C_R C_R
    9                      fourier        8.403593        1.898490        2.651251        0.799497 # Zn4+2 O_3_z Zn4+2
   10                      fourier       23.397332        1.898490        2.651251        0.799497 # Zn4+2 O_3_z H_
   11              cosine/periodic       39.831479              -1               3 # Zn4+2 O_R C_R

Dihedral Coeffs

    1        0.555556              -1               2 # O_R C_R C_R C_R
    2        2.245703              -1               2 # O_R C_R O_R Zn4+2
    3        1.497136              -1               2 # C_R C_R C_R H_

Improper Coeffs

    1        2.000000        1.000000       -1.000000        0.000000               0 # O_R C_R C_R O_R

Pair Coeffs

    1        0.124000        2.461553 # Zn4+2 Zn4+2
    2        0.044000        2.571134 # H_ H_
    3        0.105000        3.430851 # C_R C_R
    4        0.060000        3.118146 # O_3_z O_3_z
    5        0.060000        3.118146 # O_R O_R

Atoms

       1      444        1     1.08258    7.68663    6.81117    0.75754
       2      444        1     1.04394    5.00090    5.75735    0.64567
       3      444        1     1.07768    6.81465    1.05555   10.14911
       4      444        1     1.04948    9.53628    2.09844   10.06763
       5      444        1     1.08756    6.78842    8.91148   18.03999
       6      444        1     1.04765    9.51329    9.92949   18.15504
       7      444        1     1.08923    7.71230   14.66393    8.64691
       8      444        1     1.06892    4.99077   13.62398    8.73027
       9      444        1     1.08911   14.07662   14.56394   18.08664
      10      444        1     1.06615    2.23591   13.54793   18.16647
      11      444        1     1.08757    0.43948    8.97608    8.61629
      12      444        1     1.04822   12.27819    9.99461    8.72623
      13      444        1     1.07864    0.44797    1.11436    0.71779
      14      444        1     1.04973   12.29003    2.15114    0.63750
      15      444        1     1.08275   14.13851    6.74472   10.18590
      16      444        1     1.04519    2.26083    5.69344   10.07674
      17      444        2     0.40821    5.06457    8.05429    0.62615
      18      444        2     0.12743    9.19225    4.60701   16.29587
      19      444        2     0.12136    9.57764    3.63959   14.01221
      20      444        2     0.12334    5.62181    1.95245   14.06355
      21      444        2     0.11677    5.23473    2.91969   16.33421
      22      444        2     0.11167    1.61334    9.78714    0.21137
      23      444        2     0.10906    0.76627    5.57750    0.31357
      24      444        2     0.40906    9.46504   15.66143   10.06545
      25      444        2     0.11996    5.32873    3.15791    6.83557
      26      444        2     0.12058    4.94052    4.17554    4.57401
      27      444        2     0.12496    8.90646    5.83853    4.64656
      28      444        2     0.12374    9.29805    4.81624    6.89286
      29      444        2     0.11009   12.91858   13.91591    9.61401
      30      444        2     0.10751   13.77698    2.26788    9.76214
      31      444        2     0.41013    9.41139    7.64680   18.16849
      32      444        2     0.12726    5.30753   11.12705    2.50175
      33      444        2     0.12119    4.93526   12.09646    4.78604
      34      444        2     0.12420    8.90509   13.75049    4.72698
      35      444        2     0.12159    9.27938   12.77964    2.45597
      36      444        2     0.10853   12.89861    5.91297   18.58450
      37      444        2     0.10054   13.78271   10.25070    0.00000
      38      444        2     0.43398    5.06012    0.05983    8.73170
      39      444        2     0.12620    9.19634   12.55303   11.97208
      40      444        2     0.12021    9.57651   11.52421   14.22967
      41      444        2     0.12392    5.60761    9.86980   14.13901
      42      444        2     0.12420    5.22543   10.89906   11.89551
      43      444        2     0.09843    1.60622    1.80175    9.17869
      44      444        2     0.11250    0.74730   13.45017    9.02975
      45      444        2     0.43292    2.16128   -0.02603   18.16210
      46      444        2     0.12667   12.61075   12.59223    2.53171
      47      444        2     0.12049   12.22222   11.56988    4.79151
      48      444        2     0.12439    1.63463    9.93403    4.72945
      49      444        2     0.12360    2.02554   10.95845    2.48402
      50      444        2     0.09936    5.61665    1.71251   18.59296
      51      444        2     0.10178    6.52177   13.49108    0.00000
      52      444        2     0.40914   12.37791    7.71273    8.74072
      53      444        2     0.12734    1.94296   11.05038   11.94434
      54      444        2     0.12143    2.29898   12.00649   14.23723
      55      444        2     0.12354   12.90404   13.68334   14.14915
      56      444        2     0.12208   12.54441   12.72264   11.87111
      57      444        2     0.10842    8.88847    5.98576    9.16278
      58      444        2     0.11194    8.04126   10.19499    9.04881
      59      444        2     0.40713   12.36946   15.71737    0.64086
      60      444        2     0.12069    1.91546    3.07458   16.25995
      61      444        2     0.12006    2.30937    4.09913   14.00287
      62      444        2     0.12510   12.90650    5.75853   14.06909
      63      444        2     0.12299   12.50827    4.72639   16.30952
      64      444        2     0.11042    8.91419   13.96914    0.19504
      65      444        2     0.10816    8.04617    2.31932    0.32160
      66      444        2     0.40848    2.19792    7.99028   10.05866
      67      444        2     0.12754   12.61098    4.67753    6.85345
      68      444        2     0.12165   12.23792    3.71003    4.56782
      69      444        2     0.12324    1.62538    2.01527    4.64375
      70      444        2     0.11696    2.00025    2.98231    6.91631
      71      444        2     0.11117    5.64662    9.73066    9.63186
      72      444        2     0.10877    6.49368    5.52123    9.74686
      73      444        3     0.67854    6.89755    4.51978   17.73266
      74      444        3    -0.08668    7.18507    3.83575   16.43880
      75      444        3    -0.07069    8.42043    4.02110   15.79856
      76      444        3    -0.07236    8.63344    3.48556   14.53215
      77      444        3    -0.08862    7.61515    2.75638   13.89728
      78      444        3    -0.07260    6.39704    2.53370   14.55894
      79      444        3    -0.07196    6.18224    3.07158   15.82096
      80      444        3     0.69429    7.80035    2.25751   12.50401
      81      444        3     0.65791    2.76197    7.38743    0.62287
      82      444        3    -0.08069    1.32709    7.65496    0.30239
      83      444        3    -0.08636    0.89574    8.97523    0.10727
      84      444        3    -0.08524    0.41532    6.59691    0.16255
      85      444        3     0.68134    7.62229    3.21148    8.27136
      86      444        3    -0.08883    7.34077    3.91357    6.98619
      87      444        3    -0.07055    6.10213    3.74868    6.34676
      88      444        3    -0.07421    5.88756    4.31274    5.09351
      89      444        3    -0.08966    6.90696    5.05218    4.47277
      90      444        3    -0.06964    8.13010    5.25099    5.13266
      91      444        3    -0.07084    8.34724    4.68229    6.38065
      92      444        3     0.69378    6.71654    5.58591    3.09440
      93      444        3     0.66131   11.77488    0.46167   10.04916
      94      444        3    -0.08887   13.20993    0.19232    9.72795
      95      444        3    -0.08797   13.63777   14.72769    9.51998
      96      444        3    -0.07179   14.12507    1.24905    9.60081
      97      444        3     0.67564    7.59886   11.19416    1.05823
      98      444        3    -0.08885    7.32126   11.88024    2.35424
      99      444        3    -0.06997    6.08571   11.70574    2.99752
     100      444        3    -0.07352    5.87987   12.24272    4.26455
     101      444        3    -0.09057    6.90519   12.96371    4.89791
     102      444        3    -0.07455    8.12377   13.17568    4.23353
     103      444        3    -0.07029    8.33154   12.63555    2.97091
     104      444        3     0.69137    6.72455   13.46428    6.29161
     105      444        3     0.66004   11.74956    8.31462   18.17631
     106      444        3    -0.09555   13.18485    8.04498   18.49492
     107      444        3    -0.07955   13.61643    6.72470   18.68920
     108      444        3    -0.05856   14.13395    9.23232    0.00000
     109      444        3     0.67616    6.90436   12.50864   10.52746
     110      444        3    -0.08714    7.18348   11.80129   11.81109
     111      444        3    -0.07463    8.42028   11.96128   12.45553
     112      444        3    -0.07238    8.63060   11.39070   13.70707
     113      444        3    -0.09146    7.60819   10.65110   14.32287
     114      444        3    -0.07020    6.38692   10.45744   13.65778
     115      444        3    -0.07253    6.17469   11.03088   12.41109
     116      444        3     0.69610    7.79163   10.11295   15.70164
     117      444        3     0.83349    2.75048   15.25771    8.74641
     118      444        3    -0.13353    1.31466   15.52579    9.06516
     119      444        3    -0.09613    0.88666    0.99036    9.27263
     120      444        3    -0.05829    0.39943   14.46903    9.19153
     121      444        3     0.67664    0.34680   12.55686    1.10506
     122      444        3    -0.08989    0.06364   11.84984    2.38675
     123      444        3    -0.07351   13.38641   12.00580    3.02214
     124      444        3    -0.07329   13.17151   11.43932    4.27437
     125      444        3    -0.09165   14.19438   10.70748    4.89808
     126      444        3    -0.06984    0.85577   10.51643    4.24128
     127      444        3    -0.07080    1.07280   11.08634    2.99416
     128      444        3     0.69535   14.00708   10.17464    6.27747
     129      444        3     0.82003    4.47724   15.16373   18.17316
     130      444        3    -0.14345    5.91214   15.43682   18.49084
     131      444        3    -0.08665    6.33851    0.90373   18.69192
     132      444        3    -0.04218    6.86713   14.51265    0.00000
     133      444        3     0.67854   14.22648   11.13000   10.48555
     134      444        3    -0.08757   14.49901   11.81383   11.78339
     135      444        3    -0.07037    1.16352   11.63079   12.43615
     136      444        3    -0.07411    1.36013   12.16034   13.70765
     137      444        3    -0.09026    0.33242   12.88332   14.33471
     138      444        3    -0.07351   13.68632   13.10619   13.66000
     139      444        3    -0.07149   13.48714   12.57224   12.39354
     140      444        3     0.69030    0.50241   13.37471   15.73249
     141      444        3     0.65708   10.03853    8.38514    8.74792
     142      444        3    -0.08004    8.60269    8.11755    9.06641
     143      444        3    -0.08826    8.17088    6.79796    9.26445
     144      444        3    -0.07992    7.69049    9.17586    9.20228
     145      444        3     0.68275   14.18419    3.12221   17.69126
     146      444        3    -0.08941   14.46651    3.82671   16.40710
     147      444        3    -0.07067    1.14263    3.66574   15.77073
     148      444        3    -0.07369    1.36057    4.23397   14.51980
     149      444        3    -0.08919    0.34290    4.97525   13.89826
     150      444        3    -0.07008   13.68197    5.16970   14.55506
     151      444        3    -0.06987   13.46109    4.59574   15.80016
     152      444        3     0.69440    0.53759    5.51587   12.52258
     153      444        3     0.65851   10.05290    0.51893    0.62084
     154      444        3    -0.08341    8.61894    0.24508    0.29822
     155      444        3    -0.08979    8.19284   14.77833    0.09592
     156      444        3    -0.07996    7.70122    1.29873    0.16480
     157      444        3     0.67990    0.33258    4.58583    8.30451
     158      444        3    -0.08780    0.05099    3.90263    7.00886
     159      444        3    -0.07047   13.38474    4.09019    6.36089
     160      444        3    -0.07253   13.17873    3.55441    5.09340
     161      444        3    -0.08909   14.19948    2.82291    4.46502
     162      444        3    -0.07278    0.84834    2.59836    5.13419
     163      444        3    -0.07148    1.05628    3.13650    6.39726
     164      444        3     0.69462   14.01995    2.32262    3.07145
     165      444        3     0.66043    4.49793    7.33022   10.05099
     166      444        3    -0.08547    5.93249    7.59845    9.72933
     167      444        3    -0.08274    6.36399    8.91819    9.53044
     168      444        3    -0.07816    6.84454    6.54022    9.59287
     169      444        4    -0.99353    5.87155    7.62249    0.16114
     170      444        5    -0.59727    7.82609    5.21147   18.26831
     171      444        5    -0.59357    5.71107    4.38685   18.20047
     172      444        5    -0.60622    6.80668    1.62172   11.98856
     173      444        5    -0.60186    8.90413    2.50450   11.91926
     174      444        5    -0.61412    3.12558    6.14018    0.52792
     175      444        5    -0.56281    3.52676    8.33902    0.93459
     176      444        4    -0.99607    8.65885    0.23789    9.59989
     177      444        5    -0.60978    6.68661    2.51853    8.79240
     178      444        5    -0.58713    8.80652    3.33679    8.74675
     179      444        5    -0.60399    7.69486    6.26274    2.60247
     180      444        5    -0.60336    5.62376    5.32663    2.49483
     181      444        5    -0.61343   11.41289    1.70954    9.95509
     182      444        5    -0.56633   11.00816   15.36593   10.36086
     183      444        4    -0.99438    8.61430    8.09014   18.63147
     184      444        5    -0.59448    6.66035   10.51003    0.52848
     185      444        5    -0.59146    8.78345   11.31895    0.58396
     186      444        5    -0.60993    7.71940   14.09942    6.80612
     187      444        5    -0.60117    5.62140   13.21894    6.87819
     188      444        5    -0.60920   11.39118    9.56437   18.27251
     189      444        5    -0.56967   10.98097    7.36672   17.86559
     190      444        4    -0.99775    5.86697   15.48339    9.19623
     191      444        5    -0.60393    7.84001   13.20330   10.00822
     192      444        5    -0.58856    5.72023   12.38528   10.05110
     193      444        5    -0.60738    6.79656    9.46146   16.19584
     194      444        5    -0.60396    8.89249   10.34359   16.29755
     195      444        5    -0.78534    3.11347   14.01023    8.84106
     196      444        5    -0.54132    3.51681   -0.05861    8.43656
     197      444        4    -0.99819    1.35467   15.39921   18.62971
     198      444        5    -0.60254   13.96949   13.24027    0.57988
     199      444        5    -0.58824    1.53451   12.44692    0.63737
     200      444        5    -0.60736    0.43715    9.52574    6.77552
     201      444        5    -0.60377   12.90490   10.40694    6.86991
     202      444        5    -0.76869    4.11625   13.91511   18.27078
     203      444        5    -0.54371    3.71103   -0.12408   17.86141
     204      444        4    -0.99391   13.17526    8.15504    9.20375
     205      444        5    -0.59669    0.60125   10.44554    9.95820
     206      444        5    -0.59255   13.04321   11.25545   10.00847
     207      444        5    -0.60882   14.08015   14.03069   16.23520
     208      444        5    -0.60092    1.59033   13.10061   16.33504
     209      444        5    -0.61007   10.39947    9.63399    8.84442
     210      444        5    -0.56919   10.80566    7.43635    8.43684
     211      444        4    -0.99465   13.17655    0.28911    0.17164
     212      444        5    -0.60764    0.56227    2.44591   18.22215
     213      444        5    -0.58963   12.99442    3.22992   18.15612
     214      444        5    -0.60471   14.12562    6.19542   12.03095
     215      444        5    -0.60389    1.63191    5.25976   11.92447
     216      444        5    -0.61428   10.41271    1.76748    0.52486
     217      444        5    -0.56602   10.81912   15.42607    0.93584
     218      444        4    -0.99477    1.39068    7.55709    9.59423
     219      444        5    -0.59764   13.96689    5.27660    8.83814
     220      444        5    -0.59461    1.51762    4.45273    8.77609
     221      444        5    -0.60658    0.44906    1.68551    2.55914
     222      444        5    -0.60234   12.91757    2.57047    2.48369
     223      444        5    -0.61436    4.13499    6.08276    9.95669
     224      444        5    -0.56265    3.73266    8.28118   10.36352
     225      444        1     1.08258    7.64912    6.68018   19.61305
     226      444        1     1.04394    4.96338    5.62637   19.50118
     227      444        1     1.07768    6.77713    0.92457   29.00462
     228      444        1     1.04948    9.49876    1.96746   28.92314
     229      444        1     1.08756    6.75090    8.78049   36.89550
     230      444        1     1.04765    9.47577    9.79851   37.01055
     231      444        1     1.08923    7.67478   14.53295   27.50242
     232      444        1     1.06892    4.95325   13.49300   27.58578
     233      444        1     1.08911   14.03910   14.43295   36.94214
     234      444        1     1.06615    2.19840   13.41695   37.02198
     235      444        1     1.08757    0.40196    8.84510   27.47180
     236      444        1     1.04822   12.24067    9.86362   27.58174
     237      444        1     1.07864    0.41045    0.98338   19.57330
     238      444        1     1.04973   12.25251    2.02016   19.49301
     239      444        1     1.08275   14.10099    6.61374   29.04140
     240      444        1     1.04519    2.22332    5.56245   28.93225
     241      444        2     0.40821    5.02705    7.92330   19.48166
     242      444        2     0.12743    9.15473    4.47602   35.15138
     243      444        2     0.12136    9.54012    3.50861   32.86771
     244      444        2     0.12334    5.58430    1.82147   32.91906
     245      444        2     0.11677    5.19722    2.78871   35.18971
     246      444        2     0.11167    1.57582    9.65616   19.06688
     247      444        2     0.10906    0.72875    5.44651   19.16908
     248      444        2     0.40906    9.42753   15.53044   28.92096
     249      444        2     0.11996    5.29122    3.02692   25.69108
     250      444        2     0.12058    4.90300    4.04456   23.42951
     251      444        2     0.12496    8.86894    5.70754   23.50207
     252      444        2     0.12374    9.26053    4.68526   25.74837
     253      444        2     0.11009   12.88106   13.78493   28.46952
     254      444        2     0.10751   13.73946    2.13690   28.61765
     255      444        2     0.41013    9.37387    7.51582   37.02400
     256      444        2     0.12726    5.27001   10.99607   21.35726
     257      444        2     0.12119    4.89775   11.96548   23.64155
     258      444        2     0.12420    8.86757   13.61950   23.58249
     259      444        2     0.12159    9.24186   12.64865   21.31148
     260      444        2     0.10853   12.86109    5.78199   37.44001
     261      444        2     0.10054   13.74519   10.11972   18.85551
     262      444        2     0.43398    5.02261   -0.07116   27.58721
     263      444        2     0.12620    9.15882   12.42205   30.82759
     264      444        2     0.12021    9.53899   11.39323   33.08518
     265      444        2     0.12392    5.57009    9.73882   32.99452
     266      444        2     0.12420    5.18791   10.76808   30.75101
     267      444        2     0.09843    1.56870    1.67077   28.03420
     268      444        2     0.11250    0.70978   13.31919   27.88526
     269      444        2     0.43292    2.12376   -0.15701   37.01760
     270      444        2     0.12667   12.57323   12.46124   21.38722
     271      444        2     0.12049   12.18470   11.43890   23.64701
     272      444        2     0.12439    1.59712    9.80304   23.58496
     273      444        2     0.12360    1.98802   10.82746   21.33953
     274      444        2     0.09936    5.57913    1.58153   37.44847
     275      444        2     0.10178    6.48426   13.36010   18.85551
     276      444        2     0.40914   12.34040    7.58175   27.59622
     277      444        2     0.12734    1.90544   10.91939   30.79985
     278      444        2     0.12143    2.26147   11.87550   33.09274
     279      444        2     0.12354   12.86652   13.55235   33.00466
     280      444        2     0.12208   12.50689   12.59165   30.72662
     281      444        2     0.10842    8.85095    5.85478   28.01829
     282      444        2     0.11194    8.00374   10.06401   27.90432
     283      444        2     0.40713   12.33194   15.58638   19.49637
     284      444        2     0.12069    1.87795    2.94360   35.11546
     285      444        2     0.12006    2.27185    3.96815   32.85838
     286      444        2     0.12510   12.86898    5.62755   32.92460
     287      444        2     0.12299   12.47076    4.59541   35.16503
     288      444        2     0.11042    8.87668   13.83815   19.05055
     289      444        2     0.10816    8.00865    2.18834   19.17711
     290      444        2     0.40848    2.16040    7.85930   28.91417
     291      444        2     0.12754   12.57346    4.54655   25.70896
     292      444        2     0.12165   12.20040    3.57905   23.42333
     293      444        2     0.12324    1.58786    1.88429   23.49926
     294      444        2     0.11696    1.96273    2.85132   25.77182
     295      444        2     0.11117    5.60910    9.59967   28.48737
     296      444        2     0.10877    6.45617    5.39024   28.60237
     297      444        3     0.67854    6.86003    4.38880   36.58817
     298      444        3    -0.08668    7.14755    3.70476   35.29431
     299      444        3    -0.07069    8.38292    3.89012   34.65407
     300      444        3    -0.07236    8.59592    3.35458   33.38766
     301      444        3    -0.08862    7.57763    2.62539   32.75279
     302      444        3    -0.07260    6.35953    2.40271   33.41445
     303      444        3    -0.07196    6.14472    2.94059   34.67647
     304      444        3     0.69429    7.76284    2.12652   31.35952
     305      444        3     0.65791    2.72445    7.25645   19.47838
     306      444        3    -0.08069    1.28957    7.52398   19.15789
     307      444        3    -0.08636    0.85822    8.84425   18.96278
     308      444        3    -0.08524    0.37781    6.46593   19.01806
     309      444        3     0.68134    7.58478    3.08050   27.12687
     310      444        3    -0.08883    7.30325    3.78259   25.84170
     311      444        3    -0.07055    6.06462    3.61770   25.20227
     312      444        3    -0.07421    5.85004    4.18176   23.94902
     313      444        3    -0.08966    6.86945    4.92120   23.32828
     314      444        3    -0.06964    8.09259    5.12001   23.98817
     315      444        3    -0.07084    8.30972    4.55131   25.23616
     316      444        3     0.69378    6.67902    5.45493   21.94990
     317      444        3     0.66131   11.73736    0.33068   28.90466
     318      444        3    -0.08887   13.17241    0.06134   28.58346
     319      444        3    -0.08797   13.60025   14.59671   28.37548
     320      444        3    -0.07179   14.08755    1.11807   28.45632
     321      444        3     0.67564    7.56135   11.06318   19.91374
     322      444        3    -0.08885    7.28375   11.74926   21.20975
     323      444        3    -0.06997    6.04820   11.57476   21.85302
     324      444        3    -0.07352    5.84235   12.11173   23.12006
     325      444        3    -0.09057    6.86767   12.83273   23.75341
     326      444        3    -0.07455    8.08625   13.04470   23.08904
     327      444        3    -0.07029    8.29402   12.50457   21.82642
     328      444        3     0.69137    6.68704   13.33330   25.14712
     329      444        3     0.66004   11.71205    8.18364   37.03182
     330      444        3    -0.09555   13.14734    7.91400   37.35042
     331      444        3    -0.07955   13.57891    6.59372   37.54471
     332      444        3    -0.05856   14.09643    9.10134   18.85551
     333      444        3     0.67616    6.86684   12.37765   29.38297
     334      444        3    -0.08714    7.14596   11.67031   30.66660
     335      444        3    -0.07463    8.38277   11.83030   31.31104
     336      444        3    -0.07238    8.59308   11.25972   32.56258
     337      444        3    -0.09146    7.57067   10.52012   33.17838
     338      444        3    -0.07020    6.34941   10.32645   32.51329
     339      444        3    -0.07253    6.13717   10.89990   31.26660
     340      444        3     0.69610    7.75412    9.98196   34.55715
     341      444        3     0.83349    2.71296   15.12673   27.60192
     342      444        3    -0.13353    1.27715   15.39481   27.92067
     343      444        3    -0.09613    0.84915    0.85937   28.12814
     344      444        3    -0.05829    0.36191   14.33805   28.04704
     345      444        3     0.67664    0.30929   12.42587   19.96057
     346      444        3    -0.08989    0.02612   11.71886   21.24226
     347      444        3    -0.07351   13.34889   11.87482   21.87765
     348      444        3    -0.07329   13.13399   11.30834   23.12988
     349      444        3    -0.09165   14.15687   10.57650   23.75358
     350      444        3    -0.06984    0.81825   10.38544   23.09679
     351      444        3    -0.07080    1.03528   10.95536   21.84967
     352      444        3     0.69535   13.96956   10.04366   25.13298
     353      444        3     0.82003    4.43972   15.03275   37.02867
     354      444        3    -0.14345    5.87463   15.30583   37.34635
     355      444        3    -0.08665    6.30099    0.77274   37.54743
     356      444        3    -0.04218    6.82961   14.38167   18.85551
     357      444        3     0.67854   14.18896   10.99902   29.34106
     358      444        3    -0.08757   14.46149   11.68285   30.63890
     359      444        3    -0.07037    1.12601   11.49981   31.29166
     360      444        3    -0.07411    1.32262   12.02936   32.56316
     361      444        3    -0.09026    0.29491   12.75234   33.19022
     362      444        3    -0.07351   13.64880   12.97521   32.51551
     363      444        3    -0.07149   13.44962   12.44125   31.24904
     364      444        3     0.69030    0.46489   13.24372   34.58800
     365      444        3     0.65708   10.00101    8.25416   27.60343
     366      444        3    -0.08004    8.56517    7.98657   27.92192
     367      444        3    -0.08826    8.13337    6.66697   28.11995
     368      444        3    -0.07992    7.65297    9.04488   28.05779
     369      444        3     0.68275   14.14668    2.99123   36.54676
     370      444        3    -0.08941   14.42899    3.69572   35.26261
     371      444        3    -0.07067    1.10511    3.53476   34.62624
     372      444        3    -0.07369    1.32305    4.10299   33.37531
     373      444        3    -0.08919    0.30539    4.84426   32.75377
     374      444        3    -0.07008   13.64446    5.03871   33.41056
     375      444        3    -0.06987   13.42357    4.46475   34.65567
     376      444        3     0.69440    0.50007    5.38488   31.37809
     377      444        3     0.65851   10.01539    0.38795   19.47634
     378      444        3    -0.08341    8.58142    0.11409   19.15373