Created on Tue Feb 06 14:54:54 2018 

        2448 atoms
        2880 bonds
        5232 angles
        6528 dihedrals
        4320 impropers

           4 atom types
           6 bond types
          12 angle types
           3 dihedral types
           1 improper types
           0.000000  37.076000 xlo xhi
           0.000000  32.002839 ylo yhi
           0.000000  27.752964 zlo zhi
          -6.179576   6.075808  16.142445 xy xz yz

Masses

    1    55.845000000 # Fe3+2
    2     1.007940000 # H_
    3    12.010700000 # C_R
    4    14.006700000 # N_R

Bond Coeffs

    1      287.646492        1.925279  # Fe3+2 N_R
    2      357.440381        1.081418  # H_ C_R
    3      391.669513        1.458000  # C_R C_R
    4      663.718927        1.345073  # C_R N_R
    5      462.655054        1.379256  # C_R C_R
    6      929.109299        1.322497  # N_R N_R

Angle Coeffs

    1                      fourier       49.752097        0.343737        0.374972        0.281246 # N_R Fe3+2 N_R
    2              cosine/periodic      143.630586              -1               3 # C_R C_R N_R
    3              cosine/periodic      234.844275              -1               3 # N_R C_R N_R
    4              cosine/periodic      165.695700              -1               3 # N_R C_R C_R
    5              cosine/periodic      101.626578              -1               3 # C_R C_R C_R
    6              cosine/periodic       76.817955              -1               3 # C_R C_R H_
    7              cosine/periodic      117.010657              -1               3 # C_R C_R C_R
    8              cosine/periodic      109.704024              -1               3 # H_ C_R N_R
    9              cosine/periodic      184.094783              -1               3 # N_R N_R C_R
   10              cosine/periodic       86.617965              -1               3 # Fe3+2 N_R N_R
   11              cosine/periodic       62.932864              -1               3 # Fe3+2 N_R C_R
   12              cosine/periodic      132.654363              -1               3 # C_R N_R C_R

Dihedral Coeffs

    1        0.555556              -1               2 # N_R C_R C_R C_R
    2        2.245703              -1               2 # C_R C_R N_R C_R
    3        1.497136              -1               2 # N_R C_R N_R Fe3+2

Improper Coeffs

    1        2.000000        1.000000       -1.000000        0.000000               0 # N_R C_R C_R N_R

Pair Coeffs

    1        0.013000        2.594297 # Fe3+2 Fe3+2
    2        0.044000        2.571134 # H_ H_
    3        0.105000        3.430851 # C_R C_R
    4        0.069000        3.260689 # N_R N_R

Atoms

       1      444        1     0.09751    3.06394   20.03677    6.93796
       2      444        1     0.09751   12.33275   20.03663    6.93782
       3      444        1     0.09751   -0.02606   12.03621    6.93782
       4      444        1     0.09751    9.24321   12.03616    6.93782
       5      444        1     0.09751    6.12761   16.07151   13.87620
       6      444        1     0.09751   15.39683   16.07161   13.87620
       7      444        2     0.10331   -1.14750   18.43209    4.80626
       8      444        2     0.10331    8.12130   18.43196    4.80626
       9      444        2     0.10331    2.54560    2.99418    2.41048
      10      444        2     0.10331   11.81432    2.99399    2.41048
      11      444        2     0.10331    4.80894    4.00830    1.96435
      12      444        2     0.10331   14.07764    4.00808    1.96422
      13      444        2     0.10331    6.36500    4.39812    3.88070
      14      444        2     0.10331   15.63381    4.39790    3.88042
      15      444        2     0.10331    6.98761   16.78800    8.89649
      16      444        2     0.10331   16.25739   16.78746    8.89663
      17      444        2     0.10331    5.85437   15.86051   10.89193
      18      444        2     0.10331   15.12407   15.86003   10.89207
      19      444        2     0.10331    8.08097   18.27180   13.43979
      20      444        2     0.10331   17.34979   18.27228   13.43993
      21      444        2     0.10331    9.37216   19.21150   11.54093
      22      444        2     0.10331   18.64099   19.21190   11.54093
      23      444        2     0.10331    5.03909   10.97892    9.40132
      24      444        2     0.10331   14.30827   10.97881    9.40146
      25      444        2     0.10331    5.64935    8.62189   10.10263
      26      444        2     0.10331   14.91853    8.62170   10.10250
      27      444        2     0.10331    7.91274    7.73521    9.44003
      28      444        2     0.10331   17.18184    7.73503    9.43962
      29      444        2     0.10331    9.46386    9.20780    8.14730
      30      444        2     0.10331   18.73290    9.20767    8.14688
      31      444        2     0.10331    3.90309   15.35358    8.78756
      32      444        2     0.10331   13.17220   15.35366    8.78784
      33      444        2     0.10331    2.78257   17.55361    8.60772
      34      444        2     0.10331   12.05149   17.55353    8.60772
      35      444        2     0.10331    4.99914   18.55378    5.23851
      36      444        2     0.10331   14.26788   18.55353    5.23837
      37      444        2     0.10331    6.27570   16.43007    5.35771
      38      444        2     0.10331   15.54457   16.42988    5.35771
      39      444        2     0.10331    1.90477   18.70033   13.55038
      40      444        2     0.10331   11.17394   18.70041   13.55038
      41      444        2     0.10331   -0.54203   12.41843    1.36767
      42      444        2     0.10331    8.72709   12.41832    1.36683
      43      444        2     0.10331    1.72408   12.31128    2.46460
      44      444        2     0.10331   10.99335   12.31161    2.46432
      45      444        2     0.10331    3.29305   10.47051    1.83530
      46      444        2     0.10331   12.56224   10.47072    1.83516
      47      444        2     0.10331    0.80064   15.98648   10.06225
      48      444        2     0.10331   10.06898   15.98604   10.06309
      49      444        2     0.10331    8.95183   14.72337    8.25068
      50      444        2     0.10331   18.22164   14.72377    8.24985
      51      444        2     0.10331    1.91384   11.31556    9.07147
      52      444        2     0.10331   11.18401   11.31592    9.07078
      53      444        2     0.10331    3.18758   12.48785   10.84725
      54      444        2     0.10331   12.45796   12.48881   10.84725
      55      444        2     0.10331   10.36518    5.63975    9.06967
      56      444        2     0.10331   19.63407    5.63970    9.06953
      57      444        2     0.10331    6.67199   21.07785   11.46544
      58      444        2     0.10331   15.94071   21.07763   11.46475
      59      444        2     0.10331    4.40852   20.06414   11.91171
      60      444        2     0.10331   13.67733   20.06429   11.91157
      61      444        2     0.10331    2.85231   19.67435    9.99523
      62      444        2     0.10331   12.12122   19.67443    9.99523
      63      444        2     0.10331    2.22974    7.28347    4.97930
      64      444        2     0.10331   11.49906    7.28369    4.97944
      65      444        2     0.10331    3.36308    8.21109    2.98400
      66      444        2     0.10331   12.63232    8.21119    2.98400
      67      444        2     0.10331    1.13640    5.80001    0.43586
      68      444        2     0.10331   10.40546    5.80030    0.43614
      69      444        2     0.10331   -0.15484    4.86029    2.33472
      70      444        2     0.10331    9.11425    4.86058    2.33500
      71      444        2     0.10331    4.17856   13.09372    4.47489
      72      444        2     0.10331   13.44743   13.09353    4.47447
      73      444        2     0.10331    3.56816   15.45069    3.77343
      74      444        2     0.10331   12.83714   15.45053    3.77315
      75      444        2     0.10331    1.30451   16.33711    4.43548
      76      444        2     0.10331   10.57374   16.33717    4.43576
      77      444        2     0.10331   -0.24666   14.86442    5.72807
      78      444        2     0.10331    9.02260   14.86457    5.72849
      79      444        2     0.10331    5.31460    8.71892    5.08851
      80      444        2     0.10331   14.58374    8.71884    5.08837
      81      444        2     0.10331    6.43514    6.51888    5.26835
      82      444        2     0.10331   15.70418    6.51874    5.26821
      83      444        2     0.10331    4.21818    5.51855    8.63728
      84      444        2     0.10331   13.48702    5.51842    8.63700
      85      444        2     0.10331    2.94165    7.64229    8.51808
      86      444        2     0.10331   12.21046    7.64197    8.51738
      87      444        2     0.10331    7.31307    5.37213    0.32471
      88      444        2     0.10331   16.58208    5.37198    0.32499
      89      444        2     0.10331    9.75974   11.65388   12.50757
      90      444        2     0.10331   19.02858   11.65344   12.50840
      91      444        2     0.10331    7.49334   11.76058   11.41133
      92      444        2     0.10331   16.76212   11.76005   11.41216
      93      444        2     0.10331    5.92423   13.60111   12.04090
      94      444        2     0.10331   15.19320   13.60092   12.04132
      95      444        2     0.10331    8.41752    8.08575    3.81187
      96      444        2     0.10331   17.68727    8.08653    3.81215
      97      444        2     0.10331    0.26599    9.34894    5.62414
      98      444        2     0.10331    9.53471    9.34896    5.62511
      99      444        2     0.10331    7.30259   12.75638    4.80487
     100      444        2     0.10331   16.57139   12.75631    4.80501
     101      444        2     0.10331    6.02872   11.58341    3.02826
     102      444        2     0.10331   15.29756   11.58333    3.02840
     103      444        3     0.28721    0.49256   18.89508    6.95753
     104      444        3     0.28721    9.76143   18.89500    6.95753
     105      444        3     0.28721   -0.18974   18.53331    8.90593
     106      444        3     0.28721    9.07913   18.53341    8.90593
     107      444        3     0.13527    0.73757   19.10904    5.55531
     108      444        3     0.13527   10.00636   19.10891    5.55517
     109      444        3    -0.14097    2.91098    2.84779    4.53511
     110      444        3    -0.14097   12.17974    2.84760    4.53497
     111      444        3    -0.14097    3.25118    3.16445    3.22323
     112      444        3    -0.14097   12.51992    3.16423    3.22309
     113      444        3    -0.14097    4.50411    3.72876    2.97193
     114      444        3    -0.14097   13.77286    3.72853    2.97179
     115      444        3     0.09902    5.37766    3.95878    4.03264
     116      444        3     0.09902   14.64650    3.95860    4.03251
     117      444        3     0.04315    8.30125   18.06897   10.04394
     118      444        3     0.04315   17.57058   18.06892   10.04408
     119      444        3    -0.14097    7.26330   17.13622    9.88991
     120      444        3    -0.14097   16.53277   17.13588    9.88991
     121      444        3     0.09902    6.62125   16.62237   11.00488
     122      444        3     0.09902   15.89078   16.62205   11.00502
     123      444        3     0.09902    7.87262   17.95569   12.42084
     124      444        3     0.09902   17.14169   17.95597   12.42098
     125      444        3    -0.14097    8.58194   18.48534   11.35693
     126      444        3    -0.14097   17.85094   18.48555   11.35693
     127      444        3     0.28721    6.67245   12.61778    7.92097
     128      444        3     0.28721   15.94148   12.61770    7.92097
     129      444        3     0.28721    5.98658   14.48556    7.26142
     130      444        3     0.28721   15.25564   14.48551    7.26156
     131      444        3     0.13527    6.92150   11.29653    8.43676
     132      444        3     0.13527   16.19066   11.29651    8.43690
     133      444        3    -0.14097    6.00863   10.53911    9.17235
     134      444        3    -0.14097   15.27778   10.53898    9.17235
     135      444        3    -0.14097    6.35249    9.24421    9.54979
     136      444        3    -0.14097   15.62162    9.24405    9.54966
     137      444        3    -0.14097    7.60551    8.74798    9.18262
     138      444        3    -0.14097   16.87461    8.74785    9.18235
     139      444        3     0.09902    8.47603    9.55558    8.45425
     140      444        3     0.09902   17.74507    9.55540    8.45383
     141      444        3     0.04315    5.21153   15.70578    7.10060
     142      444        3     0.04315   14.48053   15.70573    7.10073
     143      444        3    -0.14097    4.17925   16.04151    7.99105
     144      444        3    -0.14097   13.44823   16.04148    7.99119
     145      444        3     0.09902    3.54478   17.26887    7.88711
     146      444        3     0.09902   12.81367   17.26876    7.88711
     147      444        3     0.09902    4.79023   17.82767    6.02003
     148      444        3     0.09902   14.05900   17.82745    6.01990
     149      444        3    -0.14097    5.49130   16.63567    6.08345
     150      444        3    -0.14097   14.76034   16.63605    6.08442
     151      444        3     0.28721    3.55872   16.61815   12.86836
     152      444        3     0.28721   12.82798   16.61828   12.86836
     153      444        3     0.28721    2.88553   15.10884   11.57854
     154      444        3     0.28721   12.15478   15.10910   11.57895
     155      444        3     0.13527    3.79738   17.72633   13.75603
     156      444        3     0.13527   13.06650   17.72635   13.75617
     157      444        3    -0.14097   -0.16383   10.66088    0.16902
     158      444        3    -0.14097    9.10536   10.66100    0.16888
     159      444        3    -0.14097    0.16992   11.63721    1.10304
     160      444        3    -0.14097    9.43914   11.63740    1.10290
     161      444        3    -0.14097    1.42418   11.57971    1.71541
     162      444        3    -0.14097   10.69346   11.58001    1.71513
     163      444        3     0.09902    2.30498   10.55411    1.37946
     164      444        3     0.09902   11.57417   10.55430    1.37932
     165      444        3     0.04315    2.11494   14.35483   10.60288
     166      444        3     0.04315   11.38415   14.35479   10.60288
     167      444        3    -0.14097    1.08031   14.95343    9.86632
     168      444        3    -0.14097   10.34909   14.95317    9.86673
     169      444        3     0.09902    0.44790   14.24585    8.85694
     170      444        3     0.09902    9.71664   14.24566    8.85750
     171      444        3     0.09902    1.70080   12.35476    9.30862
     172      444        3     0.09902   10.97051   12.35490    9.30821
     173      444        3    -0.14097    2.40063   13.01056   10.30648
     174      444        3    -0.14097   11.67040   13.01083   10.30606
     175      444        3     0.28721    8.72509    5.17689    6.91840
     176      444        3     0.28721   17.99390    5.17673    6.91812
     177      444        3     0.28721    9.40737    5.53859    4.97000
     178      444        3     0.28721   18.67630    5.53837    4.96986
     179      444        3     0.13527    8.48002    4.96307    8.32062
     180      444        3     0.13527   17.74892    4.96289    8.32048
     181      444        3    -0.14097    6.30664   21.22419    9.34082
     182      444        3    -0.14097   15.57553   21.22414    9.34068
     183      444        3    -0.14097    5.96637   20.90764   10.65270
     184      444        3    -0.14097   15.23522   20.90771   10.65256
     185      444        3    -0.14097    4.71336   20.34353   10.90400
     186      444        3    -0.14097   13.98219   20.34361   10.90386
     187      444        3     0.09902    3.83957   20.11315    9.84259
     188      444        3     0.09902   13.10860   20.11361    9.84314
     189      444        3     0.04315    0.91608    6.00259    3.83171
     190      444        3     0.04315   10.18525    6.00291    3.83185
     191      444        3    -0.14097    1.95391    6.93506    3.98533
     192      444        3    -0.14097   11.22338    6.93552    3.98602
     193      444        3     0.09902    2.59619    7.44931    2.87104
     194      444        3     0.09902   11.86537    7.44944    2.87104
     195      444        3     0.09902    1.34473    6.11601    1.45481
     196      444        3     0.09902   10.61366    6.11582    1.45426
     197      444        3    -0.14097    0.63535    5.58641    2.51872
     198      444        3    -0.14097    9.90455    5.58661    2.51900
     199      444        3     0.28721    2.54514   11.45478    5.95509
     200      444        3     0.28721   11.81411   11.45463    5.95481
     201      444        3     0.28721    3.23098    9.58692    6.61450
     202      444        3     0.28721   12.49994    9.58681    6.61423
     203      444        3     0.13527    2.29600   12.77597    5.43916
     204      444        3     0.13527   11.56497   12.77582    5.43889
     205      444        3    -0.14097    3.20894   13.53345    4.70371
     206      444        3    -0.14097   12.47787   13.53332    4.70343
     207      444        3    -0.14097    2.86497   14.82829    4.32613
     208      444        3    -0.14097   12.13400   14.82821    4.32599
     209      444        3    -0.14097    1.61180   15.32440    4.69303
     210      444        3    -0.14097   10.88096   15.32441    4.69316
     211      444        3     0.09902    0.74126   14.51671    5.42126
     212      444        3     0.09902   10.01045   14.51680    5.42154
     213      444        3     0.04315    4.00598    8.36667    6.77533
     214      444        3     0.04315   13.27500    8.36654    6.77505
     215      444        3    -0.14097    5.03839    8.03092    5.88488
     216      444        3    -0.14097   14.30745    8.03085    5.88474
     217      444        3     0.09902    5.67287    6.80363    5.98895
     218      444        3     0.09902   14.94190    6.80353    5.98881
     219      444        3     0.09902    4.42723    6.24474    7.85589
     220      444        3     0.09902   13.69613    6.24461    7.85562
     221      444        3    -0.14097    3.72593    7.43614    7.79137
     222      444        3    -0.14097   12.99486    7.43602    7.79109
     223      444        3     0.28721    5.65879    7.45389    1.00729
     224      444        3     0.28721   14.92798    7.45404    1.00729
     225      444        3     0.28721    6.33186    8.96302    2.29670
     226      444        3     0.28721   15.60107    8.96318    2.29670
     227      444        3     0.13527    5.42025    6.34581    0.11948
     228      444        3     0.13527   14.68935    6.34579    0.11962
     229      444        3    -0.14097    9.38155   13.41142   13.70636
     230      444        3    -0.14097   18.65057   13.41128   13.70677
     231      444        3    -0.14097    9.04772   12.43499   12.77247
     232      444        3    -0.14097   18.31660   12.43463   12.77302
     233      444        3    -0.14097    7.79327   12.49219   12.16038
     234      444        3    -0.14097   17.06213   12.49181   12.16107
     235      444        3     0.09902    6.91243   13.51773   12.49660
     236      444        3     0.09902   16.18141   13.51751   12.49702
     237      444        3     0.04315    7.10255    9.71744    3.27277
     238      444        3     0.04315   16.37175    9.71754    3.27249
     239      444        3    -0.14097    8.13755    9.11905    4.00892
     240      444        3    -0.14097   17.40693    9.11929    4.00864
     241      444        3     0.09902    8.76981    9.82637    5.01774
     242      444        3     0.09902   18.03936    9.82686    5.01787
     243      444        3     0.09902    7.51606   11.71729    4.56731
     244      444        3     0.09902   16.78497   11.71701    4.56675
     245      444        3    -0.14097    6.81613   11.06113    3.56903
     246      444        3    -0.14097   16.08522   11.06144    3.56959
     247      444        4    -0.02746    1.46189   19.35164    7.79789
     248      444        4    -0.02746   10.73069   19.35159    7.79775
     249      444        4    -0.39229    1.02310   19.13682    9.06342
     250      444        4    -0.39229   10.29199   19.13669    9.06329
     251      444        4    -0.49752   -0.55647   18.36000    7.60570
     252      444        4    -0.49752    8.71250   18.36048    7.60639
     253      444        4    -0.15153    5.06294    3.65942    5.31372
     254      444        4    -0.15153   14.33175    3.65931    5.31358
     255      444        4    -0.15153    6.91553   17.00002   12.27791
     256      444        4    -0.15153   16.18481   17.00005   12.27791
     257      444        4    -0.02746    7.63810   13.11711    7.10060
     258      444        4    -0.02746   16.90728   13.11739    7.10115
     259      444        4    -0.39229    7.19677   14.32008    6.65502
     260      444        4    -0.39229   16.46579   14.32009    6.65516
     261      444        4    -0.49752    5.62364   13.44629    8.06279
     262      444        4    -0.49752   14.89259   13.44582    8.06224
     263      444        4    -0.15153    8.15729   10.81475    8.07625
     264      444        4    -0.15153   17.42639   10.81468    8.07611
     265      444        4    -0.15153    3.84085   18.18499    6.92575
     266      444        4    -0.15153   13.10976   18.18487    6.92575
     267      444        4    -0.02746    4.53143   15.66556   12.84685
     268      444        4    -0.02746   13.80059   15.66556   12.84699
     269      444        4    -0.39229    4.09852   14.67526   12.02647
     270      444        4    -0.39229   13.36777   14.67540   12.02647
     271      444        4    -0.49752    2.51312   16.31959   12.07851
     272      444        4    -0.49752   11.78226   16.31957   12.07865
     273      444        4    -0.15153    1.99530    9.59419    0.47777
     274      444        4    -0.15153   11.26437    9.59400    0.47735
     275      444        4    -0.15153    0.74845   12.95584    8.54625
     276      444        4    -0.15153   10.01774   12.95585    8.54625
     277      444        4    -0.02746    7.75562    4.72069    6.07804
     278      444        4    -0.02746   17.02460    4.72023    6.07790
     279      444        4    -0.39229    8.19441    4.93540    4.81250
     280      444        4    -0.39229   17.46328    4.93526    4.81236
     281      444        4    -0.49752    9.77404    5.71127    6.26939
     282      444        4    -0.49752   19.04292    5.71106    6.26926
     283      444        4    -0.15153    4.15457   20.41280    8.56221
     284      444        4    -0.15153   13.42343   20.41272    8.56207
     285      444        4    -0.15153    2.30173    7.07151    1.59760
     286      444        4    -0.15153   11.57093    7.07162    1.59760
     287      444        4    -0.02746    1.57924   10.95507    6.77478
     288      444        4    -0.02746   10.84835   10.95507    6.77478
     289      444        4    -0.39229    2.02069    9.75237    7.22077
     290      444        4    -0.39229   11.28971    9.75219    7.22049
     291      444        4    -0.49752    3.59398   10.62629    5.81327
     292      444        4    -0.49752   12.86288   10.62608    5.81286
     293      444        4    -0.15153    1.06009   13.25759    5.79940
     294      444        4    -0.15153   10.32915   13.25755    5.79940
     295      444        4    -0.15153    5.37649    5.88732    6.95004
     296      444        4    -0.15153   14.64548    5.88723    6.94990
     297      444        4    -0.02746    4.68602    8.40642    1.02880
     298      444        4    -0.02746   13.95520    8.40655    1.02880
     299      444        4    -0.39229    5.11872    9.39653    1.84946
     300      444        4    -0.39229   14.38794    9.39674    1.84946
     301      444        4    -0.49752    6.70455    7.75270    1.79687
     302      444        4    -0.49752   15.97347    7.75210    1.79562
     303      444        4    -0.15153    7.22211   14.47768   13.39816
     304      444        4    -0.15153   16.49123   14.47762   13.39816
     305      444        4    -0.15153    8.46880   11.11643    5.32940
     306      444        4    -0.15153   17.73770   11.11601    5.32857
     307      444        1     0.09751    6.10184   28.10800   20.81445
     308      444        1     0.09751   15.37066   28.10785   20.81431
     309      444        1     0.09751    3.01185   20.10743   20.81431
     310      444        1     0.09751   12.28112   20.10738   20.81431
     311      444        1     0.09751    9.16551   24.14274   27.75269
     312      444        1     0.09751   18.43474   24.14283   27.75269
     313      444        2     0.10331    1.89040   26.50331   18.68274
     314      444        2     0.10331   11.15920   26.50318   18.68274
     315      444        2     0.10331    5.58350   11.06540   16.28697
     316      444        2     0.10331   14.85222   11.06521   16.28697
     317      444        2     0.10331    7.84685   12.07953   15.84084
     318      444        2     0.10331   17.11555   12.07930   15.84070
     319      444        2     0.10331    9.40291   12.46935   17.75718
     320      444        2     0.10331   18.67171   12.46912   17.75690
     321      444        2     0.10331   10.02551   24.85923   22.77297
     322      444        2     0.10331   19.29530   24.85868   22.77311
     323      444        2     0.10331    8.89228   23.93173   24.76841
     324      444        2     0.10331   18.16197   23.93125   24.76855
     325      444        2     0.10331   11.11888   26.34302   27.31627
     326      444        2     0.10331   20.38770   26.34350   27.31641
     327      444        2     0.10331   12.41007   27.28272   25.41741
     328      444        2     0.10331   21.67890   27.28312   25.41741
     329      444        2     0.10331    8.07700   19.05014   23.27780
     330      444        2     0.10331   17.34617   19.05003   23.27794
     331      444        2     0.10331    8.68725   16.69311   23.97912
     332      444        2     0.10331   17.95643   16.69292   23.97898
     333      444        2     0.10331   10.95064   15.80643   23.31651
     334      444        2     0.10331   20.21974   15.80625   23.31610
     335      444        2     0.10331   12.50177   17.27902   22.02378
     336      444        2     0.10331   21.77080   17.27889   22.02336
     337      444        2     0.10331    6.94099   23.42480   22.66404
     338      444        2     0.10331   16.21011   23.42488   22.66432
     339      444        2     0.10331    5.82048   25.62484   22.48420
     340      444        2     0.10331   15.08940   25.62476   22.48420
     341      444        2     0.10331    8.03704   26.62500   19.11499
     342      444        2     0.10331   17.30579   26.62475   19.11485
     343      444        2     0.10331    9.31360   24.50129   19.23419
     344      444        2     0.10331   18.58247   24.50110   19.23419
     345      444        2     0.10331    4.94267   26.77155   27.42687
     346      444        2     0.10331   14.21184   26.77163   27.42687
     347      444        2     0.10331    2.49588   20.48966   15.24415
     348      444        2     0.10331   11.76499   20.48954   15.24332
     349      444        2     0.10331    4.76198   20.38250   16.34108
     350      444        2     0.10331   14.03125   20.38284   16.34081
     351      444        2     0.10331    6.33095   18.54173   15.71179
     352      444        2     0.10331   15.60015   18.54194   15.71165
     353      444        2     0.10331    3.83854   24.05770   23.93874
     354      444        2     0.10331   13.10689   24.05726   23.93957
     355      444        2     0.10331   11.98973   22.79459   22.12716
     356      444        2     0.10331   21.25955   22.79499   22.12633
     357      444        2     0.10331    4.95175   19.38678   22.94795
     358      444        2     0.10331   14.22191   19.38715   22.94726
     359      444        2     0.10331    6.22549   20.55908   24.72373
     360      444        2     0.10331   15.49586   20.56004   24.72373
     361      444        2     0.10331   13.40309   13.71097   22.94615
     362      444        2     0.10331   22.67198   13.71092   22.94601
     363      444        2     0.10331    9.70989   29.14908   25.34193
     364      444        2     0.10331   18.97862   29.14885   25.34123
     365      444        2     0.10331    7.44642   28.13537   25.78819
     366      444        2     0.10331   16.71524   28.13551   25.78805
     367      444        2     0.10331    5.89022   27.74558   23.87171
     368      444        2     0.10331   15.15913   27.74566   23.87171
     369      444        2     0.10331    5.26765   15.35469   18.85578
     370      444        2     0.10331   14.53697   15.35491   18.85592
     371      444        2     0.10331    6.40098   16.28231   16.86048
     372      444        2     0.10331   15.67022   16.28241   16.86048
     373      444        2     0.10331    4.17431   13.87123   14.31234
     374      444        2     0.10331   13.44336   13.87152   14.31262
     375      444        2     0.10331    2.88306   12.93152   16.21120
     376      444        2     0.10331   12.15215   12.93181   16.21148
     377      444        2     0.10331    7.21647   21.16494   18.35137
     378      444        2     0.10331   16.48533   21.16475   18.35095
     379      444        2     0.10331    6.60606   23.52191   17.64991