Created on Tue Feb 06 14:51:27 2018 

        1216 atoms
        1472 bonds
        2944 angles
        2560 dihedrals
        1728 impropers

           4 atom types
           6 bond types
           9 angle types
           3 dihedral types
           1 improper types
           0.000000  26.834000 xlo xhi
           0.000000  27.661952 ylo yhi
           0.000000  32.393986 zlo zhi
          -0.051176  -0.030530  -0.000621 xy xz yz

Masses

    1    26.981538600 # Al6+3
    2     1.007940000 # H_
    3    12.010700000 # C_R
    4    15.999400000 # O_2

Bond Coeffs

    1      239.165571        1.788660  # Al6+3 O_2
    2      602.435128        0.966432  # H_ O_2
    3      357.440381        1.081418  # H_ C_R
    4      714.557442        1.269010  # C_R O_2
    5      391.669513        1.458000  # C_R C_R
    6      462.655054        1.379256  # C_R C_R

Angle Coeffs

    1      101.767458               1               4 # O_2 Al6+3 O_2
    2      256.805977              -1               3 # O_2 C_R O_2
    3      148.862838              -1               3 # O_2 C_R C_R
    4      101.626578              -1               3 # C_R C_R C_R
    5      117.010657              -1               3 # C_R C_R C_R
    6       76.817955              -1               3 # H_ C_R C_R
    7       40.185830              -1               3 # H_ O_2 Al6+3
    8       28.022774              -1               3 # Al6+3 O_2 Al6+3
    9       65.002333              -1               3 # Al6+3 O_2 C_R

Dihedral Coeffs

    1        2.245703              -1               2 # C_R C_R O_2 Al6+3
    2        0.555556              -1               2 # O_2 C_R C_R C_R
    3        1.497136              -1               2 # C_R C_R C_R H_

Improper Coeffs

    1        2.000000        1.000000       -1.000000        0.000000               0 # O_2 C_R C_R O_2

Pair Coeffs

    1        0.505000        4.008153 # Al6+3 Al6+3
    2        0.044000        2.571134 # H_ H_
    3        0.105000        3.430851 # C_R C_R
    4        0.060000        3.118146 # O_2 O_2

Atoms

       1      444        1     1.78353   13.41688   -0.00000    0.00026
       2      444        1     1.78818    6.69332   -0.00030   16.19664
       3      444        1     1.78628   10.04235    6.91562    8.09842
       4      444        1     1.78847    3.33386    6.91554    8.09863
       5      444        1     1.78712   10.06275    0.00007    0.00016
       6      444        1     1.78770    3.31330   13.83060   16.19673
       7      444        1     1.78418   13.39612    6.91550    8.09958
       8      444        1     1.78846    6.68866    6.91564    8.09748
       9      444        2     0.47292    8.38728    1.74475    0.25224
      10      444        2     0.47523    1.67883    1.74834    0.23661
      11      444        2     0.11499   10.49820    9.72584    5.14716
      12      444        2     0.10435    3.78614    9.72728    5.15275
      13      444        2     0.12470   10.49842   11.34503    3.22273
      14      444        2     0.11238    3.79010   11.34677    3.22808
      15      444        2     0.11022    6.22854    9.39705    4.86857
      16      444        2     0.05393   -0.02197    9.39595    4.86310
      17      444        2     0.11356    6.23085   11.01961    2.94563
      18      444        2     0.06046   -0.02316   11.01835    2.94030
      19      444        2     0.47227    8.36577    5.17628    8.37006
      20      444        2     0.47621    1.65669    5.15863    8.29242
      21      444        2     0.10648    6.20781   11.03799   13.20936
      22      444        2     0.04713   -0.03287   11.03865   13.20483
      23      444        2     0.11504    6.22763    9.41843   11.28462
      24      444        2     0.06227   -0.02806    9.41961   11.27986
      25      444        2     0.11897   10.48371   11.33307   13.00299
      26      444        2     0.10722    3.77440   11.32920   13.00908
      27      444        2     0.12363   10.50133    9.71092   11.07983
      28      444        2     0.11048    3.79501    9.70667   11.08647
      29      444        2     0.47412   11.69730   12.08885   15.93538
      30      444        2     0.47492    4.98901   12.07932   15.97598
      31      444        2     0.10663    9.58627    4.10441   11.04904
      32      444        2     0.10766    2.88188    4.10402   11.04478
      33      444        2     0.11641    9.58587    2.48526   12.97339
      34      444        2     0.11574    2.87806    2.48456   12.96955
      35      444        2     0.11072    0.43873    4.43460   11.32912
      36      444        2     0.11033    7.15059    4.43478   11.33372
      37      444        2     0.11447    0.43619    2.81215   13.25228
      38      444        2     0.11500    7.14483    2.81225   13.25627
      39      444        2     0.47283   11.71907    8.65659    7.83348
      40      444        2     0.47543    5.01094    8.67220    7.90342
      41      444        2     0.10690    0.46055    2.79350    2.98799
      42      444        2     0.10717    7.16936    2.79222    2.99215
      43      444        2     0.11542    0.44041    4.41308    4.91252
      44      444        2     0.11682    7.14707    4.41120    4.91731
      45      444        2     0.11080    9.60166    2.49762    3.19416
      46      444        2     0.11027    2.89266    2.50235    3.18815
      47      444        2     0.11481    9.58376    4.11979    5.11741
      48      444        2     0.11357    2.87234    4.12488    5.11064
      49      444        3     0.73883    8.35832    8.52196    6.27446
      50      444        3     0.74219    1.64543    8.52303    6.27549
      51      444        3    -0.11082    8.36218    9.47506    5.12424
      52      444        3    -0.14663    1.65051    9.47550    5.12449
      53      444        3    -0.07189    9.56992   10.01785    4.65966
      54      444        3    -0.06652    2.85908   10.01889    4.66261
      55      444        3     0.72585    8.36937   12.22543    1.82313
      56      444        3     0.72994    1.66273   12.22570    1.82323
      57      444        3    -0.09678    8.36493   11.27256    2.97644
      58      444        3    -0.13648    1.65721   11.27282    2.97646
      59      444        3    -0.08179    9.57166   10.91051    3.59363
      60      444        3    -0.07336    2.86269   10.91152    3.59649
      61      444        3    -0.07245    7.15585    9.83581    4.50442
      62      444        3     0.00527    0.44556    9.83538    4.50161
      63      444        3    -0.07610    7.15700   10.72905    3.43864
      64      444        3     0.00094    0.44852   10.72851    3.43577
      65      444        3     0.73855    8.33672   12.22354   14.37371
      66      444        3     0.74114    1.62600   12.22278   14.37410
      67      444        3    -0.10868    8.34559   11.27138   13.22276
      68      444        3    -0.14522    1.63576   11.27014   13.22340
      69      444        3    -0.07103    7.14165   10.73891   12.73699
      70      444        3     0.01261    0.43248   10.73876   12.73482
      71      444        3     0.72453    8.37449    8.52231    9.92098
      72      444        3     0.72878    1.66841    8.52092    9.92165
      73      444        3    -0.09542    8.36537    9.47467   11.07460
      74      444        3    -0.13448    1.65863    9.47313   11.07529
      75      444        3    -0.07769    7.15117    9.84634   11.67087
      76      444        3    -0.00334    0.44341    9.84619   11.66872
      77      444        3    -0.07586    9.55936   10.90108   12.62366
      78      444        3    -0.06981    2.85055   10.89832   12.62727
      79      444        3    -0.08082    9.56948   10.00812   11.55782
      80      444        3    -0.07243    2.86212   10.00513   11.56161
      81      444        3     0.73938   11.72613    5.30907    9.92249
      82      444        3     0.73842    5.02255    5.30806    9.92169
      83      444        3    -0.11086   11.72220    4.35595   11.07272
      84      444        3    -0.10903    5.01755    4.35551   11.07264
      85      444        3    -0.06775   10.51447    3.81277   11.53688
      86      444        3    -0.06938    3.80901    3.81226   11.53472
      87      444        3     0.72628   11.71477    1.60578   14.37401
      88      444        3     0.72574    5.00551    1.60511   14.37375
      89      444        3    -0.09671   11.71923    2.55852   13.22057
      90      444        3    -0.09695    5.01102    2.55808   13.22060
      91      444        3    -0.07776   10.51262    2.92013   12.60291
      92      444        3    -0.07763    3.80545    2.91960   12.60084
      93      444        3    -0.07198   12.92842    3.99557   11.69298
      94      444        3    -0.07268    6.22257    3.99545   11.69528
      95      444        3    -0.07604   12.92717    3.10238   12.75881
      96      444        3    -0.07548    6.21969    3.10224   12.76106
      97      444        3     0.73834   11.74869    1.60748    1.82355
      98      444        3     0.73763    5.04101    1.60859    1.82283
      99      444        3    -0.10772   11.73977    2.55968    2.97445
     100      444        3    -0.10741    5.03131    2.56112    2.97365
     101      444        3    -0.07068   12.94360    3.09239    3.46023
     102      444        3    -0.07019    6.23468    3.09228    3.46222
     103      444        3     0.72545   11.71043    5.30898    6.27604
     104      444        3     0.72499    4.99911    5.31021    6.27551
     105      444        3    -0.09572   11.71965    4.35649    5.12254
     106      444        3    -0.09580    5.00876    4.35806    5.12181
     107      444        3    -0.07736   12.93393    3.98499    4.52630
     108      444        3    -0.07735    6.22391    3.98482    4.52837
     109      444        3    -0.07260   10.52592    2.92979    3.57353
     110      444        3    -0.07236    3.81661    2.93311    3.56983
     111      444        3    -0.07598   10.51565    3.82278    4.63937
     112      444        3    -0.07661    3.80518    3.82628    4.63551
     113      444        4    -1.08990    8.37018    0.80811   16.19626
     114      444        4    -1.09370    1.66159    0.80761   16.19659
     115      444        4    -0.64490    7.23588   12.55803    1.34458
     116      444        4    -0.63080    0.52966   12.55926    1.34501
     117      444        4    -0.64705    7.22245    8.12753    6.69786
     118      444        4    -0.63629    0.50829    8.13033    6.69911
     119      444        4    -0.64227    9.50766   12.61485    1.40336
     120      444        4    -0.64126    2.80155   12.61421    1.40306
     121      444        4    -0.65017    9.49018    8.18391    6.75531
     122      444        4    -0.64724    2.77701    8.18477    6.75593
     123      444        4    -1.08892    8.36554    6.10715    8.09746
     124      444        4    -1.09552    1.65661    6.10895    8.09942
     125      444        4    -0.64072    9.51369    8.13770    9.49942
     126      444        4    -0.64027    2.80805    8.13738    9.49890
     127      444        4    -0.65087    9.46850   12.56560   14.85214
     128      444        4    -0.64744    2.75748   12.56528   14.85233
     129      444        4    -0.64650    7.24097    8.18538    9.44489
     130      444        4    -0.62950    0.53551    8.18303    9.44604
     131      444        4    -0.64720    7.19965   12.61285   14.79918
     132      444        4    -0.63440    0.48832   12.61181   14.79926
     133      444        4    -1.09066   11.71455   13.02280    0.00000
     134      444        4    -1.09191    5.00610   13.02383    0.00000
     135      444        4    -0.64570   12.84820    1.27298   14.85232
     136      444        4    -0.64234    6.13858    1.27182   14.85227
     137      444        4    -0.64785   12.86204    5.70348    9.49921
     138      444        4    -0.64855    6.15970    5.70077    9.49800
     139      444        4    -0.64166   10.57630    1.21675   14.79401
     140      444        4    -0.64257    3.86686    1.21626   14.79370
     141      444        4    -0.64896   10.59428    5.64709    9.44155
     142      444        4    -0.64891    3.89096    5.64641    9.44139
     143      444        4    -1.09028   11.71923    7.72386    8.09958
     144      444        4    -1.09282    5.01108    7.72219    8.09786
     145      444        4    -0.63912   10.57127    5.69375    6.69744
     146      444        4    -0.64256    3.85946    5.69367    6.69840
     147      444        4    -0.64912   10.61699    1.26533    1.34521
     148      444        4    -0.65003    3.90943    1.26617    1.34453
     149      444        4    -0.64749   12.84392    5.64581    6.75232
     150      444        4    -0.64144    6.13201    5.64815    6.75099
     151      444        4    -0.64808   12.88586    1.21818    1.39801
     152      444        4    -0.64663    6.17864    1.21966    1.39769
     153      444        1     1.78353   13.40161   -0.00031   16.19725
     154      444        1     1.78818    6.67805   -0.00061   32.39363
     155      444        1     1.78628   10.02708    6.91531   24.29541
     156      444        1     1.78847    3.31860    6.91523   24.29562
     157      444        1     1.78712   10.04748   -0.00024   16.19715
     158      444        1     1.78770    3.29804   13.83029   32.39373
     159      444        1     1.78418   13.38085    6.91519   24.29657
     160      444        1     1.78846    6.67340    6.91533   24.29447
     161      444        2     0.47292    8.37202    1.74443   16.44923
     162      444        2     0.47523    1.66357    1.74803   16.43360
     163      444        2     0.11499   10.48294    9.72553   21.34415
     164      444        2     0.10435    3.77088    9.72697   21.34974
     165      444        2     0.12470   10.48315   11.34472   19.41972
     166      444        2     0.11238    3.77483   11.34646   19.42507
     167      444        2     0.11022    6.21327    9.39673   21.06557
     168      444        2     0.05393   -0.03723    9.39564   21.06009
     169      444        2     0.11356    6.21558   11.01930   19.14263
     170      444        2     0.06046   -0.03842   11.01804   19.13730
     171      444        2     0.47227    8.35051    5.17597   24.56705
     172      444        2     0.47621    1.64143    5.15832   24.48942
     173      444        2     0.10648    6.19254   11.03768   29.40635
     174      444        2     0.04713   -0.04813   11.03834   29.40182
     175      444        2     0.11504    6.21236    9.41812   27.48162
     176      444        2     0.06227   -0.04332    9.41929   27.47685
     177      444        2     0.11897   10.46844   11.33276   29.19999
     178      444        2     0.10722    3.75914   11.32889   29.20608
     179      444        2     0.12363   10.48607    9.71061   27.27682
     180      444        2     0.11048    3.77974    9.70636   27.28346
     181      444        2     0.47412   11.68203   12.08854   32.13237
     182      444        2     0.47492    4.97374   12.07901   32.17298
     183      444        2     0.10663    9.57101    4.10410   27.24603
     184      444        2     0.10766    2.86662    4.10371   27.24177
     185      444        2     0.11641    9.57060    2.48495   29.17038
     186      444        2     0.11574    2.86279    2.48424   29.16654
     187      444        2     0.11072    0.42347    4.43429   27.52611
     188      444        2     0.11033    7.13533    4.43447   27.53071
     189      444        2     0.11447    0.42093    2.81184   29.44928
     190      444        2     0.11500    7.12957    2.81194   29.45326
     191      444        2     0.47283   11.70380    8.65628   24.03047
     192      444        2     0.47543    4.99568    8.67189   24.10041
     193      444        2     0.10690    0.44529    2.79319   19.18498
     194      444        2     0.10717    7.15409    2.79191   19.18914
     195      444        2     0.11542    0.42514    4.41277   21.10951
     196      444        2     0.11682    7.13180    4.41089   21.11430
     197      444        2     0.11080    9.58640    2.49731   19.39115
     198      444        2     0.11027    2.87740    2.50204   19.38514
     199      444        2     0.11481    9.56849    4.11948   21.31440
     200      444        2     0.11357    2.85708    4.12457   21.30763
     201      444        3     0.73883    8.34306    8.52165   22.47145
     202      444        3     0.74219    1.63017    8.52271   22.47249
     203      444        3    -0.11082    8.34691    9.47475   21.32124
     204      444        3    -0.14663    1.63525    9.47519   21.32148
     205      444        3    -0.07189    9.55466   10.01754   20.85666
     206      444        3    -0.06652    2.84382   10.01858   20.85960
     207      444        3     0.72585    8.35410   12.22512   18.02013
     208      444        3     0.72994    1.64747   12.22539   18.02022
     209      444        3    -0.09678    8.34967   11.27225   19.17343
     210      444        3    -0.13648    1.64194   11.27251   19.17345
     211      444        3    -0.08179    9.55640   10.91020   19.79062
     212      444        3    -0.07336    2.84742   10.91121   19.79349
     213      444        3    -0.07245    7.14059    9.83550   20.70141
     214      444        3     0.00527    0.43029    9.83507   20.69861
     215      444        3    -0.07610    7.14174   10.72874   19.63563
     216      444        3     0.00094    0.43326   10.72820   19.63276
     217      444        3     0.73855    8.32145   12.22323   30.57071
     218      444        3     0.74114    1.61074   12.22247   30.57110
     219      444        3    -0.10868    8.33032   11.27107   29.41975
     220      444        3    -0.14522    1.62050   11.26983   29.42040
     221      444        3    -0.07103    7.12638   10.73860   28.93398
     222      444        3     0.01261    0.41721   10.73845   28.93181
     223      444        3     0.72453    8.35922    8.52199   26.11797
     224      444        3     0.72878    1.65314    8.52061   26.11864
     225      444        3    -0.09542    8.35011    9.47436   27.27159
     226      444        3    -0.13448    1.64337    9.47282   27.27229
     227      444        3    -0.07769    7.13591    9.84603   27.86787
     228      444        3    -0.00334    0.42815    9.84588   27.86571
     229      444        3    -0.07586    9.54409   10.90077   28.82065
     230      444        3    -0.06981    2.83529   10.89801   28.82427
     231      444        3    -0.08082    9.55421   10.00781   27.75481
     232      444        3    -0.07243    2.84685   10.00482   27.75860
     233      444        3     0.73938   11.71087    5.30875   26.11948
     234      444        3     0.73842    5.00728    5.30774   26.11869
     235      444        3    -0.11086   11.70693    4.35564   27.26971
     236      444        3    -0.10903    5.00229    4.35520   27.26963
     237      444        3    -0.06775   10.49921    3.81246   27.73387
     238      444        3    -0.06938    3.79374    3.81195   27.73171
     239      444        3     0.72628   11.69950    1.60547   30.57100
     240      444        3     0.72574    4.99024    1.60480   30.57074
     241      444        3    -0.09671   11.70397    2.55821   29.41756
     242      444        3    -0.09695    4.99575    2.55777   29.41759
     243      444        3    -0.07776   10.49736    2.91982   28.79991
     244      444        3    -0.07763    3.79019    2.91929   28.79783
     245      444        3    -0.07198   12.91315    3.99526   27.88997
     246      444        3    -0.07268    6.20731    3.99514   27.89227
     247      444        3    -0.07604   12.91191    3.10206   28.95580
     248      444        3    -0.07548    6.20442    3.10193   28.95805
     249      444        3     0.73834   11.73343    1.60717   18.02055
     250      444        3     0.73763    5.02575    1.60828   18.01982
     251      444        3    -0.10772   11.72450    2.55937   19.17144
     252      444        3    -0.10741    5.01604    2.56081   19.17065
     253      444        3    -0.07068   12.92834    3.09208   19.65722
     254      444        3    -0.07019    6.21942    3.09197   19.65921
     255      444        3     0.72545   11.69516    5.30867   22.47304
     256      444        3     0.72499    4.98384    5.30990   22.47250
     257      444        3    -0.09572   11.70438    4.35618   21.31953
     258      444        3    -0.09580    4.99349    4.35775   21.31881
     259      444        3    -0.07736   12.91866    3.98468   20.72329
     260      444        3    -0.07735    6.20865    3.98451   20.72536
     261      444        3    -0.07260   10.51065    2.92948   19.77052
     262      444        3    -0.07236    3.80135    2.93280   19.76683
     263      444        3    -0.07598   10.50039    3.82247   20.83636
     264      444        3    -0.07661    3.78991    3.82597   20.83251
     265      444        4    -1.08990    8.35491    0.80780   32.39326
     266      444        4    -1.09370    1.64632    0.80730   32.39358
     267      444        4    -0.64490    7.22062   12.55772   17.54157
     268      444        4    -0.63080    0.51439   12.55895   17.54201
     269      444        4    -0.64705    7.20718    8.12722   22.89485
     270      444        4    -0.63629    0.49303    8.13002   22.89610
     271      444        4    -0.64227    9.49240   12.61454   17.60035
     272      444        4    -0.64126    2.78629   12.61390   17.60006
     273      444        4    -0.65017    9.47491    8.18360   22.95230
     274      444        4    -0.64724    2.76174    8.18446   22.95292
     275      444        4    -1.08892    8.35028    6.10684   24.29445
     276      444        4    -1.09552    1.64134    6.10863   24.29641
     277      444        4    -0.64072    9.49843    8.13739   25.69642
     278      444        4    -0.64027    2.79279    8.13707   25.69590
     279      444        4    -0.65087    9.45323   12.56529   31.04913
     280      444        4    -0.64744    2.74221   12.56497   31.04933
     281      444        4    -0.64650    7.22570    8.18507   25.64188
     282      444        4    -0.62950    0.52025    8.18272   25.64303
     283      444        4    -0.64720    7.18438   12.61254   30.99617
     284      444        4    -0.63440    0.47305   12.61150   30.99625
     285      444        4    -1.09066   11.69928   13.02249   16.19699
     286      444        4    -1.09191    4.99083   13.02352   16.19699
     287      444        4    -0.64570   12.83294    1.27267   31.04931
     288      444        4    -0.64234    6.12331    1.27151   31.04926
     289      444        4    -0.64785   12.84677    5.70317   25.69621
     290      444        4    -0.64855    6.14444    5.70046   25.69499
     291      444        4    -0.64166   10.56103    1.21644   30.99100
     292      444        4    -0.64257    3.85160    1.21595   30.99069
     293      444        4    -0.64896   10.57901    5.64678   25.63854
     294      444        4    -0.64891    3.87569    5.64610   25.63838
     295      444        4    -1.09028   11.70396    7.72355   24.29657
     296      444        4    -1.09282    4.99581    7.72188   24.29486
     297      444        4    -0.63912   10.55601    5.69344   22.89443
     298      444        4    -0.64256    3.84419    5.69336   22.89539
     299      444        4    -0.64912   10.60173    1.26502   17.54220
     300      444        4    -0.65003    3.89417    1.26586   17.54152
     301      444        4    -0.64749   12.82866    5.64550   22.94931
     302      444        4    -0.64144    6.11675    5.64784   22.94798
     303      444        4    -0.64808   12.87059    1.21787   17.59500
     304      444        4    -0.64663    6.16338    1.21935   17.59468
     305      444        1     1.78353   13.39129   13.83098    0.00026
     306      444        1     1.78818    6.66773   13.83068   16.19664
     307      444        1     1.78628   10.01676   20.74660    8.09842
     308      444        1     1.78847    3.30828   20.74652    8.09863
     309      444        1     1.78712   10.03716   13.83105    0.00016
     310      444        1     1.78770    3.28772   27.66157   16.19673
     311      444        1     1.78418   13.37053   20.74647    8.09958
     312      444        1     1.78846    6.66308   20.74661    8.09748
     313      444        2     0.47292    8.36170   15.57572    0.25224
     314      444        2     0.47523    1.65325   15.57932    0.23661
     315      444        2     0.11499   10.47262   23.55682    5.14716
     316      444        2     0.10435    3.76055   23.55826    5.15275
     317      444        2     0.12470   10.47283   25.17601    3.22273
     318      444        2     0.11238    3.76451   25.17775    3.22808
     319      444        2     0.11022    6.20295   23.22802    4.86857
     320      444        2     0.05393   -0.04755   23.22693    4.86310
     321      444        2     0.11356    6.20526   24.85058    2.94563
     322      444        2     0.06046   -0.04874   24.84933    2.94030
     323      444        2     0.47227    8.34018   19.00725    8.37006
     324      444        2     0.47621    1.63111   18.98961    8.29242
     325      444        2     0.10648    6.18222   24.86896   13.20936
     326      444        2     0.04713   -0.05846   24.86963   13.20483
     327      444        2     0.11504    6.20204   23.24941   11.28462
     328      444        2     0.06227   -0.05365   23.25058   11.27986
     329      444        2     0.11897   10.45812   25.16405   13.00299
     330      444        2     0.10722    3.74882   25.16018   13.00908
     331      444        2     0.12363   10.47575   23.54189   11.07983
     332      444        2     0.11048    3.76942   23.53765   11.08647
     333      444        2     0.47412   11.67171   25.91983   15.93538
     334      444        2     0.47492    4.96342   25.91030   15.97598
     335      444        2     0.10663    9.56068   17.93538   11.04904
     336      444        2     0.10766    2.85629   17.93500   11.04478
     337      444        2     0.11641    9.56028   16.31624   12.97339
     338      444        2     0.11574    2.85247   16.31553   12.96955
     339      444        2     0.11072    0.41314   18.26558   11.32912
     340      444        2     0.11033    7.12501   18.26576   11.33372
     341      444        2     0.11447    0.41060   16.64313   13.25228
     342      444        2     0.11500    7.11925   16.64322   13.25627
     343      444        2     0.47283   11.69348   22.48756    7.83348
     344      444        2     0.47543    4.98535   22.50318    7.90342
     345      444        2     0.10690    0.43496   16.62447    2.98799
     346      444        2     0.10717    7.14377   16.62320    2.99215
     347      444        2     0.11542    0.41482   18.24406    4.91252
     348      444        2     0.11682    7.12148   18.24217    4.91731
     349      444        2     0.11080    9.57608   16.32860    3.19416
     350      444        2     0.11027    2.86708   16.33333    3.18815
     351      444        2     0.11481    9.55817   17.95077    5.11741
     352      444        2     0.11357    2.84675   17.95586    5.11064
     353      444        3     0.73883    8.33274   22.35294    6.27446
     354      444        3     0.74219    1.61985   22.35400    6.27549
     355      444        3    -0.11082    8.33659   23.30604    5.12424
     356      444        3    -0.14663    1.62492   23.30648    5.12449
     357      444        3    -0.07189    9.54433   23.84883    4.65966
     358      444        3    -0.06652    2.83349   23.84987    4.66261
     359      444        3     0.72585    8.34378   26.05640    1.82313
     360      444        3     0.72994    1.63714   26.05668    1.82323
     361      444        3    -0.09678    8.33934   25.10354    2.97644
     362      444        3    -0.13648    1.63162   25.10380    2.97646
     363      444        3    -0.08179    9.54608   24.74149    3.59363
     364      444        3    -0.07336    2.83710   24.74250    3.59649
     365      444        3    -0.07245    7.13027   23.66679    4.50442
     366      444        3     0.00527    0.41997   23.66636    4.50161
     367      444        3    -0.07610    7.13142   24.56003    3.43864
     368      444        3     0.00094    0.42293   24.55949    3.43577
     369      444        3     0.73855    8.31113   26.05452   14.37371
     370      444        3     0.74114    1.60042   26.05376   14.37410
     371      444        3    -0.10868    8.32000   25.10236   13.22276
     372      444        3    -0.14522    1.61017   25.10111   13.22340
     373      444        3    -0.07103    7.11606   24.56989   12.73699
     374      444        3     0.01261    0.40689   24.56974   12.73482
     375      444        3     0.72453    8.34890   22.35328    9.92098
     376      444        3     0.72878    1.64282   22.35190    9.92165
     377      444        3    -0.09542    8.33979   23.30565   11.07460
     378      444        3    -0.13448    1.63305   23.30411   11.07529
     379      444        3    -0.07769    7.12559   23.67731   11.67087
     380      444        3    -0.00334    0.41783   23.67716   11.66872
     381      444        3    -0.07586    9.53377   24.73206   12.62366
     382      444        3    -0.06981    2.82496   24.72929   12.62727
     383      444        3    -0.08082    9.54389   23.83910   11.55782
     384      444        3    -0.07243    2.83653   23.83611   11.56161
     385      444        3     0.73938   11.70055   19.14004    9.92249
     386      444        3     0.73842    4.99696   19.13903    9.92169
     387      444        3    -0.11086   11.69661   18.18693   11.07272