Created on Mon Mar 12 13:17:32 2018 

        2336 atoms
        2752 bonds
        5312 angles
        4864 dihedrals
        2304 impropers

           9 atom types
          13 bond types
          24 angle types
           4 dihedral types
           1 improper types
           0.000000  43.288000 xlo xhi
           0.000000  27.659693 ylo yhi
           0.000000  27.379007 zlo zhi
          -0.130344   0.015770  -0.232649 xy xz yz

Masses

    1    63.546000000 # Cu3+1
    2     1.007940000 # H_
    3    12.010700000 # C_1
    4    12.010700000 # C_R
    5    12.010700000 # C_3
    6    32.065000000 # S_3+6
    7    14.006700000 # N_2
    8    14.006700000 # N_R
    9    15.999400000 # O_3

Bond Coeffs

    1      197.659886        1.957852  # Cu3+1 N_2
    2       57.988603        2.604000  # Cu3+1 Cu3+1
    3      193.572810        1.971536  # Cu3+1 N_R
    4      130.744072        2.292917  # Cu3+1 S_3+6
    5      357.440381        1.081418  # H_ C_R
    6      331.069389        1.109401  # H_ C_3
    7      333.665878        1.726154  # C_1 S_3+6
    8      607.496018        1.385350  # C_1 N_2
    9      462.655054        1.379256  # C_R C_R
   10      663.718927        1.345073  # C_R N_R
   11      572.510195        1.366311  # C_R O_3
   12      539.248552        1.393845  # C_3 O_3
   13      349.795899        1.514000  # C_3 C_3

Angle Coeffs

    1                      fourier       32.067846        0.343737        0.374972        0.281246 # N_2 Cu3+1 S_3+6
    2                      fourier       14.461548        0.343737        0.374972        0.281246 # N_2 Cu3+1 Cu3+1
    3                      fourier       10.930064        0.343737        0.374972        0.281246 # Cu3+1 Cu3+1 S_3+6
    4                      fourier       31.571272        0.343737        0.374972        0.281246 # N_R Cu3+1 S_3+6
    5                      fourier       14.258182        0.343737        0.374972        0.281246 # Cu3+1 Cu3+1 N_R
    6                      fourier       44.957329        0.343737        0.374972        0.281246 # N_2 Cu3+1 N_R
    7                      fourier       23.442046        0.343737        0.374972        0.281246 # S_3+6 Cu3+1 S_3+6
    8              cosine/periodic       63.395702               1               1 # S_3+6 C_1 N_2
    9              cosine/periodic       76.817955              -1               3 # H_ C_R C_R
   10              cosine/periodic      165.695700              -1               3 # C_R C_R N_R
   11              cosine/periodic      109.704024              -1               3 # H_ C_R N_R
   12              cosine/periodic      117.010657              -1               3 # C_R C_R C_R
   13              cosine/periodic      144.104200              -1               3 # O_3 C_R C_R
   14                      fourier       69.847816        0.343737        0.374972        0.281246 # H_ C_3 C_3
   15                      fourier      107.207104        0.343737        0.374972        0.281246 # H_ C_3 O_3
   16                      fourier      137.437967        0.343737        0.374972        0.281246 # O_3 C_3 C_3
   17                      fourier       61.342703        0.343737        0.374972        0.281246 # H_ C_3 H_
   18                      fourier       93.452663        0.343737        0.374972        0.281246 # C_3 C_3 C_3
   19                      fourier       20.479911        0.343737        0.374972        0.281246 # Cu3+1 S_3+6 C_1
   20                      fourier        9.893557        0.343737        0.374972        0.281246 # Cu3+1 S_3+6 Cu3+1
   21              cosine/periodic       49.056572              -1               3 # C_1 N_2 Cu3+1
   22              cosine/periodic       42.346368              -1               3 # Cu3+1 N_R C_R
   23              cosine/periodic      132.654363              -1               3 # C_R N_R C_R
   24                      fourier      168.527890        0.300235        0.267331        0.266745 # C_R O_3 C_3

Dihedral Coeffs

    1        1.497136              -1               2 # H_ C_R C_R O_3
    2        0.833333               1               2 # C_R C_R O_3 C_3
    3        0.128665               1               2 # H_ C_3 O_3 C_R
    4        0.066219               1               3 # H_ C_3 C_3 C_3

Improper Coeffs

    1        2.000000        1.000000       -1.000000        0.000000               0 # H_ C_R C_R N_R

Pair Coeffs

    1        0.005000        3.113691 # Cu3+1 Cu3+1
    2        0.044000        2.571134 # H_ H_
    3        0.105000        3.430851 # C_1 C_1
    4        0.105000        3.430851 # C_R C_R
    5        0.105000        3.430851 # C_3 C_3
    6        0.274000        3.594776 # S_3+6 S_3+6
    7        0.069000        3.260689 # N_2 N_2
    8        0.069000        3.260689 # N_R N_R
    9        0.060000        3.118146 # O_3 O_3

Atoms

       1      444        1     0.28495    8.00918    4.63780    9.86219
       2      444        1     0.28495   18.84319    4.64106    9.86014
       3      444        1     0.28495    8.01755    2.09484   10.67138
       4      444        1     0.28495   18.82310    2.09394   10.67261
       5      444        1     0.28495    2.59055    3.76285   11.52834
       6      444        1     0.28495   13.42945    3.76375   11.52697
       7      444        1     0.28495    2.59393    2.97556    8.95964
       8      444        1     0.28495   13.43397    2.97728    8.95923
       9      444        1     0.28495    2.74514    9.07283    3.82759
      10      444        1     0.28495   13.57803    9.07601    3.82663
      11      444        1     0.28495    2.76421   11.61993    3.01621
      12      444        1     0.28495   13.56975   11.61898    3.01758
      13      444        1     0.28495    8.15797    9.95007    2.16185
      14      444        1     0.28495   18.99679    9.95094    2.16075
      15      444        1     0.28495    8.15341   10.73657    4.72972
      16      444        1     0.28495   18.99344   10.73821    4.72931
      17      444        2     0.08466    5.54776    6.41725   10.53134
      18      444        2     0.08466   16.37612    6.42237   10.53435
      19      444        2     0.08466    5.40248    9.33912    7.33771
      20      444        2     0.08466   16.21592    9.33593    7.33388
      21      444        2     0.08466    7.38297    8.22081    6.34686
      22      444        2     0.08466   18.19020    8.21223    6.33509
      23      444        2     0.08466    8.37911    6.23052    7.49350
      24      444        2     0.08466   19.19044    6.22449    7.48118
      25      444        2     0.08466    4.31053   10.39231    8.82699
      26      444        2     0.08466   15.11629   10.39238    8.82056
      27      444        2     0.08466    2.99550    9.28970    8.32212
      28      444        2     0.08466   13.81082    9.27422    8.32568
      29      444        2     0.08466    5.60857    0.24332    9.98567
      30      444        2     0.08466   16.40754    0.24877    9.98896
      31      444        2     0.08466    5.41262   11.18927   13.21407
      32      444        2     0.08466   16.21642   11.18916   13.21242
      33      444        2     0.08466    7.33436   12.49254    0.54074
      34      444        2     0.08466   18.14103   12.48888    0.53786
      35      444        2     0.08466    8.36961    0.54911   13.07758
      36      444        2     0.08466   19.17580    0.54677   13.07539
      37      444        2     0.08466    4.32182   10.08439   11.71164
      38      444        2     0.08466   15.13262   10.08610   11.70932
      39      444        2     0.08466    3.02877   11.21144   12.21966
      40      444        2     0.08466   13.83288   11.20452   12.21925
      41      444        2     0.08466    0.12665    3.05868   13.31277
      42      444        2     0.08466   10.96670    3.05683   13.31920
      43      444        2     0.08466   21.54701    6.39852    2.50778
      44      444        2     0.08466   10.73786    6.40490    2.50381
      45      444        2     0.08466    1.88225    7.40293    1.39907
      46      444        2     0.08466   12.71223    7.41186    1.38948
      47      444        2     0.08466    2.91936    6.13245   13.11879
      48      444        2     0.08466   13.74944    6.13849   13.11112
      49      444        2     0.08466    9.64352    4.92318    3.57200
      50      444        2     0.08466   20.45616    4.91454    3.56995
      51      444        2     0.08466    8.35557    5.40391    2.42770
      52      444        2     0.08466   19.16524    5.40218    2.43126
      53      444        2     0.08466    0.14463    3.71067    7.18932
      54      444        2     0.08466   10.98816    3.71552    7.18685
      55      444        2     0.08466   21.51498    0.49727    4.30001
      56      444        2     0.08466   10.70106    0.49738    4.30425
      57      444        2     0.08466    1.77765   13.29370    5.39585
      58      444        2     0.08466   12.60278   13.28760    5.40270
      59      444        2     0.08466    2.89565    0.59789    7.36468
      60      444        2     0.08466   13.72502    0.59086    7.36974
      61      444        2     0.08466    9.62733    2.00207    3.24989
      62      444        2     0.08466   20.43932    1.99960    3.24729
      63      444        2     0.08466    8.33892    1.53119    4.39707
      64      444        2     0.08466   19.14916    1.52404    4.39022
      65      444        2     0.08466    5.21241    7.29161    3.15488
      66      444        2     0.08466   16.03938    7.29653    3.15748
      67      444        2     0.08466    5.37198    4.37784    6.35508
      68      444        2     0.08466   16.18518    4.37508    6.35138
      69      444        2     0.08466    3.39779    5.50176    7.35386
      70      444        2     0.08466   14.20486    5.49357    7.34250
      71      444        2     0.08466    2.39787    7.48966    6.20778
      72      444        2     0.08466   13.20855    7.48372    6.19573
      73      444        2     0.08466    6.47139    3.32130    4.86840
      74      444        2     0.08466   17.27681    3.32162    4.86210
      75      444        2     0.08466    7.77709    4.43916    5.36327
      76      444        2     0.08466   18.59182    4.42433    5.36629
      77      444        2     0.08466    5.17973   13.46513    3.70000
      78      444        2     0.08466   15.97864   13.47065    3.70328
      79      444        2     0.08466    5.37100    2.52478    0.47653
      80      444        2     0.08466   16.17465    2.52463    0.47489
      81      444        2     0.08466    3.44639    1.22513   13.15110
      82      444        2     0.08466   14.25296    1.22130   13.14767
      83      444        2     0.08466    2.41158   13.16723    0.61343
      84      444        2     0.08466   13.21773   13.16472    0.61124
      85      444        2     0.08466    6.45515    3.62773    1.97950
      86      444        2     0.08466   17.26554    3.62952    1.97717
      87      444        2     0.08466    7.75466    2.50902    1.46888
      88      444        2     0.08466   18.55857    2.50238    1.46929
      89      444        2     0.08466   10.62077   10.65700    0.36948
      90      444        2     0.08466   21.46058   10.65526    0.37619
      91      444        2     0.08466   10.84978    7.30869   11.18419
      92      444        2     0.08466   -0.02848    7.31521   11.18131
      93      444        2     0.08466    8.87559    6.30162   12.29975
      94      444        2     0.08466   19.70525    6.31076   12.29003
      95      444        2     0.08466    7.83838    7.57506    0.57811
      96      444        2     0.08466   18.66803    7.58134    0.57030
      97      444        2     0.08466    1.13126    8.79918   10.11914
      98      444        2     0.08466   11.94436    8.79017   10.11695
      99      444        2     0.08466    2.42220    8.31175   11.25688
     100      444        2     0.08466   13.23216    8.30984   11.26099
     101      444        2     0.08466   10.59922    9.99811    6.50224
     102      444        2     0.08466   21.44245   10.00308    6.49991
     103      444        2     0.08466   10.88656   13.21624    9.38484
     104      444        2     0.08466   -0.05725   13.21662    9.38895
     105      444        2     0.08466    8.98497    0.42619    8.28639
     106      444        2     0.08466   19.80971    0.42031    8.29296
     107      444        2     0.08466    7.86267   13.12299    6.31921
     108      444        2     0.08466   18.69178   13.11611    6.32414
     109      444        2     0.08466    1.14804   11.71434   10.44181
     110      444        2     0.08466   11.96057   11.71169   10.43852
     111      444        2     0.08466    2.43803   12.18977    9.29764
     112      444        2     0.08466   13.24883   12.18225    9.29038
     113      444        3     0.30110    5.66973    3.95004   11.90412
     114      444        3     0.30110   16.50444    3.95790   11.90439
     115      444        4     0.05009    5.94291    6.84033    9.60743
     116      444        4     0.05009   16.76711    6.84248    9.60729
     117      444        4     0.20925    5.34295    7.97709    9.04219
     118      444        4     0.20925   16.16490    7.97835    9.04192
     119      444        4    -0.12562    5.84445    8.48136    7.83861
     120      444        4    -0.12562   16.65980    8.47866    7.83409
     121      444        4    -0.12562    6.95146    7.84703    7.27460
     122      444        4    -0.12562   17.76298    7.84140    7.26502
     123      444        4     0.05009    7.50709    6.74099    7.90076
     124      444        4     0.05009   18.32131    6.73676    7.89241
     125      444        5     0.07237    3.59944    9.62837    9.17566
     126      444        5     0.07237   14.41347    9.62383    9.17471
     127      444        3     0.30110    5.67522    2.77265    8.61508
     128      444        3     0.30110   16.51108    2.78023    8.60782
     129      444        4     0.05009    5.93031   13.67399   10.92354
     130      444        4     0.05009   16.73100   13.67743   10.92532
     131      444        4     0.20925    5.34909   12.52956   11.49371
     132      444        4     0.20925   16.15065   12.53198   11.49425
     133      444        4    -0.12562    5.84036   12.05423   12.71289
     134      444        4    -0.12562   16.64398   12.05450   12.71194
     135      444        4    -0.12562    6.91834   12.72629   13.28977
     136      444        4    -0.12562   17.72348   12.72485   13.28799
     137      444        4     0.05009    7.52080    0.00908   12.65951
     138      444        4     0.05009   18.32536    0.00841   12.65841
     139      444        5     0.07237    3.62029   10.85784   11.36338
     140      444        5     0.07237   14.42654   10.85585   11.36229
     141      444        3     0.30110    0.26172    1.72328   10.83784
     142      444        3     0.30110   11.09890    1.72726   10.83387
     143      444        4     0.05009    0.49822    4.10789    0.04134
     144      444        4     0.05009   11.33606    4.10848    0.04435
     145      444        4     0.20925   21.52436    4.67799    1.16648
     146      444        4     0.20925   10.71785    4.68034    1.16867
     147      444        4    -0.12562    0.36139    5.89404    1.66081
     148      444        4    -0.12562   11.19611    5.89931    1.65848
     149      444        4    -0.12562    1.46690    6.46567    1.03096
     150      444        4    -0.12562   12.29877    6.47236    1.02480
     151      444        4     0.05009    2.04892    5.71825   13.62626
     152      444        4     0.05009   12.88104    5.72316   13.62133
     153      444        5     0.07237    8.95198    4.55810    2.79786
     154      444        5     0.07237   19.76134    4.55379    2.79663
     155      444        3     0.30110    0.27356    5.01770    9.67588
     156      444        3     0.30110   11.08887    5.00983    9.67738
     157      444        4     0.05009    0.50928    2.77340    6.76836
     158      444        4     0.05009   11.34858    2.77563    6.76809
     159      444        4     0.20925   21.52250    2.21448    5.64514
     160      444        4     0.20925   10.71489    2.21704    5.64651
     161      444        4    -0.12562    0.34105    0.99329    5.14561
     162      444        4    -0.12562   11.17262    0.99306    5.14917
     163      444        4    -0.12562    1.44198    0.40528    5.76876
     164      444        4    -0.12562   12.27101    0.40158    5.77369
     165      444        4     0.05009    2.02925    1.02564    6.86159
     166      444        4     0.05009   12.86079    1.02155    6.86542
     167      444        5     0.07237    8.94331    2.37159    4.02909
     168      444        5     0.07237   19.75258    2.36644    4.02499
     169      444        3     0.30110    5.08309    9.75615    1.78429
     170      444        3     0.30110   15.91766    9.76365    1.78497
     171      444        4     0.05009    4.82127    6.87150    4.08180
     172      444        4     0.05009   15.64436    6.87359    4.08153
     173      444        4     0.20925    5.42328    5.73552    4.64718
     174      444        4     0.20925   16.24441    5.73690    4.64677
     175      444        4    -0.12562    4.92826    5.23521    5.85500
     176      444        4    -0.12562   15.74312    5.23280    5.85048
     177      444        4    -0.12562    3.82511    5.87259    6.42312
     178      444        4    -0.12562   14.63622    5.86723    6.41463
     179      444        4     0.05009    3.26695    6.97730    5.79668
     180      444        4     0.05009   14.08051    6.97318    5.78847
     181      444        5     0.07237    7.17434    4.08976    4.51316
     182      444        5     0.07237   17.98786    4.08556    4.51329
     183      444        3     0.30110    5.07641   10.93403    5.08127
     184      444        3     0.30110   15.91216   10.94095    5.07388
     185      444        4     0.05009    4.85630    0.03648    2.76364
     186      444        4     0.05009   15.65694    0.03994    2.76528
     187      444        4     0.20925    5.43671    1.18193    2.19470
     188      444        4     0.20925   16.23814    1.18437    2.19443
     189      444        4    -0.12562    4.94342    1.65944    0.97702
     190      444        4    -0.12562   15.74692    1.65967    0.97592
     191      444        4    -0.12562    3.86392    0.98913    0.40097
     192      444        4    -0.12562   14.66898    0.98757    0.39905
     193      444        4     0.05009    3.26200   13.70556    1.03041
     194      444        4     0.05009   14.06651   13.70479    1.02671
     195      444        5     0.07237    7.16106    2.85785    2.32585
     196      444        5     0.07237   17.96700    2.85604    2.32557
     197      444        3     0.30110   10.48844   11.98660    2.85481
     198      444        3     0.30110   21.32559   11.99056    2.85015
     199      444        4     0.05009   10.25150    9.60525   13.64447
     200      444        4     0.05009   21.08908    9.60600   13.64761
     201      444        4     0.20925   10.86969    9.03336   12.52015
     202      444        4     0.20925   -0.03587    9.03584   12.52247
     203      444        4    -0.12562   10.39156    7.81430   12.03034
     204      444        4    -0.12562   21.22604    7.81974   12.02815
     205      444        4    -0.12562    9.28898    7.24118   12.66430
     206      444        4    -0.12562   20.12055    7.24809   12.65814
     207      444        4     0.05009    8.70669    7.99043    0.06790
     208      444        4     0.05009   19.53847    7.99554    0.06270
     209      444        5     0.07237    1.82603    9.16004   10.89233
     210      444        5     0.07237   12.63571    9.15550   10.89110
     211      444        3     0.30110   10.49838    8.70397    4.01144
     212      444        3     0.30110   21.31469    8.69638    4.01239
     213      444        4     0.05009   10.23889   10.93802    6.92087
     214      444        4     0.05009   21.07789   10.94041    6.92073
     215      444        4     0.20925   10.87263   11.49658    8.04258
     216      444        4     0.20925   -0.04988   11.49935    8.04395
     217      444        4    -0.12562   10.41500   12.72059    8.53992
     218      444        4    -0.12562   21.24616   12.72061    8.54348
     219      444        4    -0.12562    9.31667   13.31216    7.91541
     220      444        4    -0.12562   20.14532   13.30868    7.92020
     221      444        4     0.05009    8.72685   12.69224    6.82367
     222      444        4     0.05009   19.55809   12.68829    6.82737
     223      444        5     0.07237    1.83465   11.34741    9.66411
     224      444        5     0.07237   12.64440   11.34197    9.65972
     225      444        5    -0.04404    2.72024   10.24783   10.27466
     226      444        5    -0.04404   13.52986   10.24303   10.27233
     227      444        5    -0.04404    8.05782    3.47054    3.41663
     228      444        5    -0.04404   18.86705    3.46602    3.41430
     229      444        6    -0.30417    7.32128    3.99325   12.01665
     230      444        6    -0.30417   18.15572    3.99797   12.01555
     231      444        6    -0.30417    7.32752    2.72642    8.51501
     232      444        6    -0.30417   18.16298    2.72941    8.51131
     233      444        6    -0.30417    1.91369    1.61328   10.85715
     234      444        6    -0.30417   12.75068    1.61400   10.85537
     235      444        6    -0.30417    1.92483    5.12694    9.64015
     236      444        6    -0.30417   12.74036    5.12331    9.63987
     237      444        6    -0.30417    3.43179    9.71602    1.67313
     238      444        6    -0.30417   14.26610    9.72056    1.67231
     239      444        6    -0.30417    3.42450   10.98473    5.17751
     240      444        6    -0.30417   14.25984   10.98742    5.17326
     241      444        6    -0.30417    8.83668   12.09984    2.83359
     242      444        6    -0.30417   19.67365   12.10061    2.83140
     243      444        6    -0.30417    8.84690    8.59054    4.04908
     244      444        6    -0.30417   19.66341    8.58709    4.04799
     245      444        7    -0.42116    4.48760    3.91167   11.84950
     246      444        7    -0.42116   15.32241    3.92043   11.84895
     247      444        8    -0.22650    7.00649    6.23365    9.05287
     248      444        8    -0.22650   17.82745    6.23318    9.04986
     249      444        7    -0.42116    4.49281    2.81513    8.65957
     250      444        7    -0.42116   15.32888    2.82613    8.65177
     251      444        8    -0.22650    7.03111    0.48664   11.48933
     252      444        8    -0.22650   17.83347    0.48853   11.48960
     253      444        7    -0.42116    9.91670    1.78529   10.81238
     254      444        7    -0.42116   20.72360    1.77826   10.81731
     255      444        8    -0.22650    1.56764    4.55367   13.12659
     256      444        8    -0.22650   12.40282    4.55544   13.12604
     257      444        7    -0.42116    9.90680    4.95362    9.71133
     258      444        7    -0.42116   20.73589    4.96143    9.70983
     259      444        8    -0.22650    1.56565    2.19553    7.36591
     260      444        8    -0.22650   12.40235    2.19461    7.36687
     261      444        7    -0.42116    6.26510    9.79363    1.83973
     262      444        7    -0.42116   17.09979    9.80193    1.83960
     263      444        8    -0.22650    3.76095    7.48089    4.63910
     264      444        8    -0.22650   14.58089    7.48034    4.63527
     265      444        7    -0.42116    6.25860   10.88813    5.03692
     266      444        7    -0.42116   17.09455   10.89830    5.02939
     267      444        8    -0.22650    3.75385   13.22543    2.19881
     268      444        8    -0.22650   14.55617   13.22723    2.19963
     269      444        7    -0.42116    0.86371   11.93551    2.87069
     270      444        7    -0.42116   11.67066   11.92857    2.87658
     271      444        8    -0.22650    9.18480    9.15826    0.56291
     272      444        8    -0.22650   20.01965    9.16019    0.56236
     273      444        7    -0.42116    0.85236    8.75250    3.97913
     274      444        7    -0.42116   11.68045    8.76016    3.97694
     275      444        8    -0.22650    9.18518   11.51912    6.32209
     276      444        8    -0.22650   20.02160   11.51834    6.32304
     277      444        9    -0.26174    4.30112    8.50736    9.74898
     278      444        9    -0.26174   15.12842    8.51280    9.75350
     279      444        9    -0.26174    4.33510   11.96242   10.77515
     280      444        9    -0.26174   15.13495   11.96600   10.77692
     281      444        9    -0.26174    9.68382    3.96565    1.70585
     282      444        9    -0.26174   20.48775    3.96483    1.69983
     283      444        9    -0.26174    9.68711    2.94903    5.12111
     284      444        9    -0.26174   20.49260    2.94320    5.11987
     285      444        9    -0.26174    6.45968    5.20096    3.93560
     286      444        9    -0.26174   17.28609    5.20647    3.93984
     287      444        9    -0.26174    6.45241    1.74787    2.91203
     288      444        9    -0.26174   17.25210    1.75152    2.91381
     289      444        9    -0.26174    1.09954    9.74901   11.98913
     290      444        9    -0.26174   11.90358    9.74813   11.98283
     291      444        9    -0.26174    1.09445   10.77059    8.56936
     292      444        9    -0.26174   11.90031   10.76450    8.56799
     293      444        1     0.28495    8.01706    4.52148   23.55170
     294      444        1     0.28495   18.85108    4.52473   23.54964
     295      444        1     0.28495    8.02543    1.97851   24.36088
     296      444        1     0.28495   18.83099    1.97762   24.36211
     297      444        1     0.28495    2.59844    3.64652   25.21785
     298      444        1     0.28495   13.43734    3.64742   25.21648
     299      444        1     0.28495    2.60181    2.85924   22.64915
     300      444        1     0.28495   13.44185    2.86095   22.64874
     301      444        1     0.28495    2.75302    8.95650   17.51709
     302      444        1     0.28495   13.58592    8.95969   17.51613
     303      444        1     0.28495    2.77210   11.50361   16.70571
     304      444        1     0.28495   13.57763   11.50265   16.70708
     305      444        1     0.28495    8.16586    9.83375   15.85135
     306      444        1     0.28495   19.00467    9.83462   15.85025
     307      444        1     0.28495    8.16130   10.62024   18.41923
     308      444        1     0.28495   19.00132   10.62189   18.41882
     309      444        2     0.08466    5.55564    6.30092   24.22084
     310      444        2     0.08466   16.38401    6.30604   24.22385
     311      444        2     0.08466    5.41036    9.22280   21.02721
     312      444        2     0.08466   16.22381    9.21961   21.02338
     313      444        2     0.08466    7.39085    8.10449   20.03637
     314      444        2     0.08466   18.19808    8.09590   20.02460
     315      444        2     0.08466    8.38699    6.11420   21.18300
     316      444        2     0.08466   19.19832    6.10816   21.17068
     317      444        2     0.08466    4.31842   10.27598   22.51650
     318      444        2     0.08466   15.12418   10.27605   22.51006
     319      444        2     0.08466    3.00338    9.17337   22.01163
     320      444        2     0.08466   13.81870    9.15790   22.01519
     321      444        2     0.08466    5.61646    0.12699   23.67517
     322      444        2     0.08466   16.41543    0.13244   23.67846
     323      444        2     0.08466    5.42051   11.07295   26.90357
     324      444        2     0.08466   16.22431   11.07284   26.90193
     325      444        2     0.08466    7.34225   12.37621   14.23024
     326      444        2     0.08466   18.14892   12.37256   14.22736
     327      444        2     0.08466    8.37750    0.43279   26.76709
     328      444        2     0.08466   19.18368    0.43044   26.76490
     329      444        2     0.08466    4.32970    9.96807   25.40115
     330      444        2     0.08466   15.14050    9.96978   25.39882
     331      444        2     0.08466    3.03665   11.09512   25.90917
     332      444        2     0.08466   13.84076   11.08819   25.90875
     333      444        2     0.08466    0.13454    2.94236   27.00227
     334      444        2     0.08466   10.97458    2.94051   27.00871
     335      444        2     0.08466   21.55490    6.28219   16.19728
     336      444        2     0.08466   10.74574    6.28858   16.19331
     337      444        2     0.08466    1.89013    7.28660   15.08857
     338      444        2     0.08466   12.72011    7.29554   15.07899
     339      444        2     0.08466    2.92724    6.01613   26.80829
     340      444        2     0.08466   13.75733    6.02217   26.80063
     341      444        2     0.08466    9.65140    4.80686   17.26151
     342      444        2     0.08466   20.46405    4.79822   17.25945
     343      444        2     0.08466    8.36345    5.28758   16.11720
     344      444        2     0.08466   19.17313    5.28585   16.12076
     345      444        2     0.08466    0.15251    3.59434   20.87882
     346      444        2     0.08466   10.99605    3.59919   20.87636
     347      444        2     0.08466   21.52287    0.38094   17.98951
     348      444        2     0.08466   10.70894    0.38106   17.99376