Created on Tue Feb 06 14:54:08 2018 

        2944 atoms
        3328 bonds
        5888 angles
        7488 dihedrals
        2880 impropers

           8 atom types
          13 bond types
          23 angle types
           6 dihedral types
           1 improper types
           0.000000  37.182000 xlo xhi
           0.000000  27.335196 ylo yhi
           0.000000  34.436123 zlo zhi
          -9.256708   0.032300  -5.780925 xy xz yz

Masses

    1    65.380000000 # Zn3f2
    2     1.007940000 # H_
    3    12.010700000 # C_3
    4    12.010700000 # C_R
    5    14.006700000 # N_R
    6    15.999400000 # O_3
    7    15.999400000 # O_3_z
    8    15.999400000 # O_R

Bond Coeffs

    1      148.759211        1.886642  # Zn3f2 O_R
    2      189.971085        1.738954  # Zn3f2 O_3_z
    3      154.048673        1.928536  # Zn3f2 N_R
    4      850.878848        0.861362  # H_ O_3_z
    5      331.069389        1.109401  # H_ C_3
    6      357.440381        1.081418  # H_ C_R
    7      369.943935        1.486000  # C_3 C_R
    8      349.795899        1.514000  # C_3 C_3
    9      539.248552        1.393845  # C_3 O_3
   10      646.680887        1.311940  # C_R O_R
   11      663.718927        1.345073  # C_R N_R
   12      462.655054        1.379256  # C_R C_R
   13      391.669513        1.458000  # C_R C_R

Angle Coeffs

    1                      fourier       54.868606        0.343737        0.374972        0.281246 # O_3_z Zn3f2 O_R
    2                      fourier       45.004281        0.343737        0.374972        0.281246 # O_R Zn3f2 O_R
    3                      fourier       47.099941        0.343737        0.374972        0.281246 # O_R Zn3f2 N_R
    4                      fourier       97.888497        0.343737        0.374972        0.281246 # C_R C_3 C_3
    5                      fourier      144.336660        0.343737        0.374972        0.281246 # C_R C_3 O_3
    6                      fourier      107.207104        0.343737        0.374972        0.281246 # H_ C_3 O_3
    7                      fourier       73.868412        0.343737        0.374972        0.281246 # C_R C_3 H_
    8                      fourier      137.437967        0.343737        0.374972        0.281246 # C_3 C_3 O_3
    9                      fourier       69.847816        0.343737        0.374972        0.281246 # C_3 C_3 H_
   10                      fourier       93.452663        0.343737        0.374972        0.281246 # C_3 C_3 C_3
   11              cosine/periodic      130.962624              -1               3 # C_3 C_R O_R
   12              cosine/periodic      217.450257              -1               3 # O_R C_R O_R
   13              cosine/periodic      109.704024              -1               3 # N_R C_R H_
   14              cosine/periodic      165.695700              -1               3 # N_R C_R C_R
   15              cosine/periodic       76.817955              -1               3 # C_R C_R H_
   16              cosine/periodic      117.010657              -1               3 # C_R C_R C_R
   17              cosine/periodic      101.626578              -1               3 # C_R C_R C_R
   18              cosine/periodic      132.654363              -1               3 # C_R N_R C_R
   19              cosine/periodic       33.704159              -1               3 # C_R N_R Zn3f2
   20                      fourier      160.387350        0.300235        0.267331        0.266745 # C_3 O_3 C_3
   21                      fourier       27.853795        1.898490        2.651251        0.799497 # H_ O_3_z Zn3f2
   22                      fourier      110.159549        1.898490        2.651251        0.799497 # H_ O_3_z H_
   23              cosine/periodic       46.721183              -1               3 # Zn3f2 O_R C_R

Dihedral Coeffs

    1        0.416667              -1               2 # O_3 C_3 C_R O_R
    2        0.066219               1               3 # O_3 C_3 C_3 C_3
    3        0.128665               1               2 # C_3 C_3 O_3 C_3
    4        2.245703              -1               2 # C_3 C_R O_R Zn3f2
    5        1.497136              -1               2 # N_R C_R C_R C_R
    6        0.555556              -1               2 # C_R C_R C_R C_R

Improper Coeffs

    1        2.000000        1.000000       -1.000000        0.000000               0 # C_3 C_R O_R O_R

Pair Coeffs

    1        0.124000        2.461553 # Zn3f2 Zn3f2
    2        0.044000        2.571134 # H_ H_
    3        0.105000        3.430851 # C_3 C_3
    4        0.105000        3.430851 # C_R C_R
    5        0.069000        3.260689 # N_R N_R
    6        0.060000        3.118146 # O_3 O_3
    7        0.060000        3.118146 # O_3_z O_3_z
    8        0.060000        3.118146 # O_R O_R

Atoms

       1      444        1     0.88731    7.46042    3.77361    5.84209
       2      444        1     0.88731   16.75605    3.77355    5.84209
       3      444        1     0.96553    3.69337    3.12709    9.40898
       4      444        1     0.96553   12.98900    3.12708    9.40898
       5      444        1     0.88731    2.80630    8.44124    2.76074
       6      444        1     0.88731   12.10193    8.44135    2.76074
       7      444        1     0.96553   -0.96486    6.20926   16.42224
       8      444        1     0.96553    8.33068    6.20930   16.42224
       9      444        1     0.88731   -2.77701    7.00391   11.37460
      10      444        1     0.88731    6.51860    7.00397   11.37425
      11      444        1     0.96553    0.99010    7.65030    7.80908
      12      444        1     0.96553   10.28572    7.65034    7.80908
      13      444        1     0.88731    1.87704    2.33578   14.45732
      14      444        1     0.88731   11.17263    2.33589   14.45732
      15      444        1     0.96553    5.64833    4.56803    0.79547
      16      444        1     0.96553   14.94388    4.56805    0.79547
      17      444        2     0.44417    0.22111    2.44346    5.84415
      18      444        2     0.44417    9.51669    2.44350    5.84415
      19      444        2     0.44417   -0.07864    2.43159    7.44147
      20      444        2     0.44417    9.21696    2.43187    7.43992
      21      444        2     0.33755    4.03864    5.59432    5.59208
      22      444        2     0.33755   13.33425    5.59427    5.59208
      23      444        2     0.33755    5.68952    6.84035    7.81218
      24      444        2     0.33755   14.98507    6.84021    7.81235
      25      444        2     0.33755   -2.88032    8.62380    6.43198
      26      444        2     0.33755    6.41529    8.62404    6.43095
      27      444        2     0.33755   -2.06788    6.99495    4.39336
      28      444        2     0.33755    7.22779    6.99494    4.39336
      29      444        2     0.33755    4.49640    2.97332    4.75150
      30      444        2     0.33755   13.79206    2.97350    4.75132
      31      444        2     0.33755    3.51173    1.32611    3.22666
      32      444        2     0.33755   12.80731    1.32626    3.22684
      33      444        2     0.33755    7.50435   -0.26019    2.62868
      34      444        2     0.33755   16.79980   -0.26045    2.62885
      35      444        2     0.33755    8.33116    1.51419    4.13251
      36      444        2     0.33755   17.62669    1.51390    4.13268
      37      444        2     0.33755   -2.44206   11.08768    1.05030
      38      444        2     0.33755    6.85345   11.08771    1.05030
      39      444        2     0.33755   -1.73508   12.89425    2.63092
      40      444        2     0.33755    7.56043   12.89426    2.63092
      41      444        2     0.33755    2.16607   12.74980    0.76087
      42      444        2     0.33755   11.46153   12.75017    0.75932
      43      444        2     0.33755    1.32960    8.01410   16.56223
      44      444        2     0.33755   10.62506    8.01425   16.56205
      45      444        2     0.44417    4.86995    9.76713    2.76006
      46      444        2     0.44417   14.16553    9.76715    2.76126
      47      444        2     0.44417    4.56520    9.79093    1.16394
      48      444        2     0.44417   13.86093    9.79085    1.16497
      49      444        2     0.33755   -0.60701    6.61560    3.01023
      50      444        2     0.33755    8.68858    6.61573    3.01023
      51      444        2     0.33755    1.04231    5.37290    0.78635
      52      444        2     0.33755   10.33796    5.37299    0.78652
      53      444        2     0.33755    1.76813    3.58972    2.16861
      54      444        2     0.33755   11.06379    3.58986    2.16861
      55      444        2     0.33755    2.57904    5.22122    4.20723
      56      444        2     0.33755   11.87465    5.22154    4.20637
      57      444        2     0.33755   -0.15108    9.24106    3.87630
      58      444        2     0.33755    9.14462    9.24125    3.87630
      59      444        2     0.33755   -1.11739   10.89263    5.40819
      60      444        2     0.33755    8.17831   10.89267    5.40905
      61      444        2     0.33755    2.88347   12.47271    5.96468
      62      444        2     0.33755   12.17924   12.47249    5.96520
      63      444        2     0.33755    3.69189   10.69578    4.45517
      64      444        2     0.33755   12.98768   10.69559    4.45552
      65      444        2     0.33755    2.21403    1.13739    7.58921
      66      444        2     0.33755   11.50983    1.13763    7.58903
      67      444        2     0.33755    2.90252   -0.67533    6.00566
      68      444        2     0.33755   12.19840   -0.67507    6.00566
      69      444        2     0.33755    6.82265   -0.53102    7.83594
      70      444        2     0.33755   16.11819   -0.53124    7.83594
      71      444        2     0.33755    5.98792    1.32096    9.25471
      72      444        2     0.33755   15.28344    1.32065    9.25522
      73      444        2     0.44417    4.46223    8.33376   11.37391
      74      444        2     0.44417   13.75787    8.33377   11.37391
      75      444        2     0.44417    4.76215    8.34575    9.77659
      76      444        2     0.44417   14.05777    8.34572    9.77659
      77      444        2     0.33755    0.64487    5.18289   11.62564
      78      444        2     0.33755    9.94049    5.18289   11.62564
      79      444        2     0.33755   -1.00591    3.93722    9.40537
      80      444        2     0.33755    8.28973    3.93738    9.40451
      81      444        2     0.33755    7.56390    2.15344   10.78539
      82      444        2     0.33755   16.85947    2.15346   10.78539
      83      444        2     0.33755    6.75164    3.78197   12.82436
      84      444        2     0.33755   16.04725    3.78199   12.82436
      85      444        2     0.33755    0.18707    7.80384   12.46588
      86      444        2     0.33755    9.48261    7.80373   12.46657
      87      444        2     0.33755    1.17187    9.45104   13.99088
      88      444        2     0.33755   10.46735    9.45109   13.99088
      89      444        2     0.33755   -2.82064   11.03763   14.58886
      90      444        2     0.33755    6.47479   11.03755   14.58921
      91      444        2     0.33755   -3.64759    9.26315   13.08538
      92      444        2     0.33755    5.64791    9.26310   13.08538
      93      444        2     0.33755    7.12565   -0.31016   16.16604
      94      444        2     0.33755   16.42118   -0.31049   16.16759
      95      444        2     0.33755    6.41873   -2.11696   14.58697
      96      444        2     0.33755   15.71421   -2.11648   14.58370
      97      444        2     0.33755    2.51763   -1.97274   16.45702
      98      444        2     0.33755   11.81303   -1.97257   16.45702
      99      444        2     0.33755    3.35408    2.76289    0.65584
     100      444        2     0.33755   12.64950    2.76332    0.65429
     101      444        2     0.44417   -0.18633    1.00953   14.45628
     102      444        2     0.44417    9.10929    1.00958   14.45628
     103      444        2     0.44417    0.11772    0.98630   16.05257
     104      444        2     0.44417    9.41330    0.98640   16.05257
     105      444        2     0.33755    5.29050    4.16128   14.20766
     106      444        2     0.33755   14.58608    4.16134   14.20783
     107      444        2     0.33755    3.64111    5.40408   16.43137
     108      444        2     0.33755   12.93674    5.40414   16.43154
     109      444        2     0.33755    2.91513    7.18714   15.04927
     110      444        2     0.33755   12.21081    7.18728   15.04927
     111      444        2     0.33755    2.10423    5.55559   13.01066
     112      444        2     0.33755   11.39987    5.55577   13.01066
     113      444        2     0.33755    4.83434    1.53633   13.34159
     114      444        2     0.33755   14.13003    1.53624   13.34193
     115      444        2     0.33755    5.80089   -0.11489   11.80815
     116      444        2     0.33755   15.09665   -0.11497   11.80815
     117      444        2     0.33755    1.80014   -1.69536   11.25286
     118      444        2     0.33755   11.09583   -1.69528   11.25286
     119      444        2     0.33755    0.99145    0.08155   12.76220
     120      444        2     0.33755   10.28711    0.08169   12.76220
     121      444        2     0.33755    2.46959    9.64012    9.62834
     122      444        2     0.33755   11.76520    9.63992    9.62834
     123      444        2     0.33755    1.78115   11.45284   11.21189
     124      444        2     0.33755   11.07675   11.45252   11.21223
     125      444        2     0.33755   -2.13903   11.30844    9.38195
     126      444        2     0.33755    7.15680   11.30898    9.38040
     127      444        2     0.33755   -1.30435    9.45647    7.96301
     128      444        2     0.33755    7.99142    9.45675    7.96301
     129      444        3     0.04924    4.95256    5.61222    6.19885
     130      444        3     0.04924   14.24815    5.61216    6.19885
     131      444        3    -0.19469    5.05453    6.96479    6.92028
     132      444        3    -0.19469   14.35013    6.96469    6.92046
     133      444        3    -0.19469    5.86965    7.82379    5.92060
     134      444        3    -0.19469   15.16527    7.82373    5.92077
     135      444        3     0.04924   -2.43346    6.76458    5.40303
     136      444        3     0.04924    6.86218    6.76461    5.40303
     137      444        4     0.65653    4.93653    4.43882    7.17304
     138      444        4     0.65653   14.23213    4.43873    7.17304
     139      444        4     0.65653    3.74559    7.56596    7.43734
     140      444        4     0.65653   13.04118    7.56592    7.43734
     141      444        4     0.65653    5.12461    8.45170    4.73083
     142      444        4     0.65653   14.42022    8.45171    4.73101
     143      444        4     0.65653   -1.22063    6.59343    6.33745
     144      444        4     0.65653    8.07498    6.59349    6.33745
     145      444        4     0.19216    5.13912    2.24516    4.26009
     146      444        4     0.19216   14.43473    2.24522    4.26009
     147      444        4    -0.19675    4.58734    1.29810    3.39971
     148      444        4    -0.19675   13.88292    1.29834    3.39885
     149      444        4     0.08851    5.42482    0.36578    2.76694
     150      444        4     0.08851   14.72034    0.36564    2.76780
     151      444        4    -0.19675    6.79779    0.45257    3.05052
     152      444        4    -0.19675   16.09330    0.45239    3.05070
     153      444        4     0.19216    7.26759    1.43101    3.91212
     154      444        4     0.19216   16.56315    1.43080    3.91229
     155      444        4     0.19216   -1.43091   11.49347    1.04049
     156      444        4     0.19216    7.86460   11.49349    1.04049
     157      444        4    -0.19675   -1.02506   12.50824    1.90053
     158      444        4    -0.19675    8.27045   12.50850    1.89915
     159      444        4     0.08851    0.29289   12.99053    1.84646
     160      444        4     0.08851    9.58839   12.99057    1.84646
     161      444        4    -0.19675    1.13823   12.41534    0.88363
     162      444        4    -0.19675   10.43373   12.41544    0.88346
     163      444        4     0.19216    0.67012   11.39491    0.07180
     164      444        4     0.19216    9.96559   11.39501    0.07180
     165      444        3     0.04924    0.30483    6.60204    2.40020
     166      444        3     0.04924    9.60044    6.60216    2.40020
     167      444        3    -0.19469    0.40808    5.24971    1.67911
     168      444        3    -0.19469    9.70371    5.24982    1.67911
     169      444        3    -0.19469    1.22297    4.39033    2.67965
     170      444        3    -0.19469   10.51859    4.39047    2.67965
     171      444        3     0.04924    2.21594    5.44978    3.19636
     172      444        3     0.04924   11.51155    5.44993    3.19636
     173      444        4     0.65653    0.28168    7.78011    1.43082
     174      444        4     0.65653    9.57731    7.78024    1.43082
     175      444        4     0.65653   -0.90330    4.65231    1.16738
     176      444        4     0.65653    8.39234    4.65239    1.16738
     177      444        4     0.65653    0.47595    3.76262    3.86890
     178      444        4     0.65653    9.77158    3.76260    3.86976
     179      444        4     0.65653    3.43193    5.62176    2.26555
     180      444        4     0.65653   12.72751    5.62191    2.26555
     181      444        4     0.19216    0.49755    9.96926    4.35961
     182      444        4     0.19216    9.79324    9.96940    4.35961
     183      444        4    -0.19675   -0.04373   10.91819    5.22482
     184      444        4    -0.19675    9.25197   10.91846    5.22396
     185      444        4     0.08851    0.80158   11.85028    5.84674
     186      444        4     0.08851   10.09733   11.85028    5.84691
     187      444        4    -0.19675    2.17144   11.76081    5.55076
     188      444        4    -0.19675   11.46718   11.76068    5.55110
     189      444        4     0.19216    2.63087   10.78077    4.68590
     190      444        4     0.19216   11.92663   10.78066    4.68624
     191      444        4     0.19216    3.22462    0.72967    7.58886
     192      444        4     0.19216   12.52035    0.72979    7.58886
     193      444        4    -0.19675    3.62020   -0.28826    6.72813
     194      444        4    -0.19675   12.91598   -0.28811    6.72813
     195      444        4     0.08851    4.93775   -0.77231    6.77083
     196      444        4     0.08851   14.23347   -0.77228    6.77083
     197      444        4    -0.19675    5.79407   -0.19544    7.72299
     198      444        4    -0.19675   15.08968   -0.19561    7.72333
     199      444        4     0.19216    5.33606    0.82871    8.53568
     200      444        4     0.19216   14.63166    0.82853    8.53603
     201      444        3     0.04924   -0.26906    5.16506   11.01904
     202      444        3     0.04924    9.02657    5.16507   11.01904
     203      444        3    -0.19469   -0.37102    3.81263   10.29726
     204      444        3    -0.19469    8.92462    3.81264   10.29726
     205      444        3    -0.19469   -1.18613    2.95341   11.29677
     206      444        3    -0.19469    8.10952    2.95339   11.29677
     207      444        3     0.04924    7.11705    4.01250   11.81469
     208      444        3     0.04924   16.41266    4.01253   11.81469
     209      444        4     0.65653   -0.25304    6.33865   10.04484
     210      444        4     0.65653    9.04258    6.33869   10.04484
     211      444        4     0.65653    0.93795    3.21145    9.78038
     212      444        4     0.65653   10.23357    3.21147    9.78038
     213      444        4     0.65653   -0.44106    2.32529   12.48654
     214      444        4     0.65653    8.85457    2.32530   12.48654
     215      444        4     0.65653    5.90406    4.18374   10.88061
     216      444        4     0.65653   15.19969    4.18376   10.88061
     217      444        4     0.19216   -0.45559    8.53198   12.95780
     218      444        4     0.19216    8.83991    8.53196   12.95797
     219      444        4    -0.19675    0.09624    9.47903   13.81818
     220      444        4    -0.19675    9.39173    9.47905   13.81836
     221      444        4     0.08851   -0.74117   10.41158   14.45009
     222      444        4     0.08851    8.55429   10.41158   14.45026
     223      444        4    -0.19675   -2.11415   10.32479   14.16702
     224      444        4    -0.19675    7.18132   10.32473   14.16737
     225      444        4     0.19216   -2.58402    9.34628   13.30577
     226      444        4     0.19216    6.71147    9.34626   13.30577
     227      444        4     0.19216    6.11453   -0.71623   16.17740
     228      444        4     0.19216   15.41002   -0.71625   16.17740
     229      444        4    -0.19675    5.70870   -1.73100   15.31736
     230      444        4    -0.19675   15.00419   -1.73105   15.31753
     231      444        4     0.08851    4.39078   -2.21335   15.37142
     232      444        4     0.08851   13.68622   -2.21329   15.37142
     233      444        4    -0.19675    3.54545   -1.63825   16.33443
     234      444        4    -0.19675   12.84088   -1.63811   16.33426
     235      444        4     0.19216    4.01355   -0.61784   17.14626
     236      444        4     0.19216   13.30899   -0.61770   17.14609
     237      444        3     0.04924    4.37863    4.17516   14.81614
     238      444        3     0.04924   13.67423    4.17500   14.81769
     239      444        3    -0.19469    4.27534    5.52727   15.53878
     240      444        3    -0.19469   13.57096    5.52736   15.53878
     241      444        3    -0.19469    3.46037    6.38659   14.53824
     242      444        3    -0.19469   12.75602    6.38670   14.53824
     243      444        3     0.04924    2.46745    5.32707   14.02153
     244      444        3     0.04924   11.76306    5.32722   14.02153
     245      444        4     0.65653    4.40169    2.99693   15.78707
     246      444        4     0.65653   13.69728    2.99700   15.78707
     247      444        4     0.65653    5.58663    6.12487   16.05050
     248      444        4     0.65653   14.88228    6.12493   16.05050
     249      444        4     0.65653    4.20735    7.01455   13.34813
     250      444        4     0.65653   13.50302    7.01462   13.34830
     251      444        4     0.65653    1.25157    5.15505   14.95251
     252      444        4     0.65653   10.54716    5.15517   14.95251
     253      444        4     0.19216    4.18580    0.80834   12.85673
     254      444        4     0.19216   13.48149    0.80811   12.85810
     255      444        4    -0.19675    4.72722   -0.14079   11.99307
     256      444        4    -0.19675   14.02294   -0.14085   11.99324
     257      444        4     0.08851    3.88198   -1.07284   11.37081
     258      444        4     0.08851   13.17770   -1.07284   11.37081
     259      444        4    -0.19675    2.51211   -0.98343   11.66679
     260      444        4    -0.19675   11.80781   -0.98339   11.66696
     261      444        4     0.19216    2.05252   -0.00344   12.53165
     262      444        4     0.19216   11.34819   -0.00334   12.53165
     263      444        4     0.19216    1.45901   10.04781    9.62886
     264      444        4     0.19216   10.75466   10.04764    9.62920
     265      444        4    -0.19675    1.06343   11.06573   10.48959
     266      444        4    -0.19675   10.35909   11.06554   10.48993
     267      444        4     0.08851   -0.25413   11.54972   10.44706
     268      444        4     0.08851    9.04159   11.54969   10.44723
     269      444        4    -0.19675   -1.11045   10.97286    9.49490
     270      444        4    -0.19675    8.18531   10.97301    9.49490
     271      444        4     0.19216   -0.65248    9.94885    8.68135
     272      444        4     0.19216    8.64326    9.94890    8.68204
     273      444        5    -0.35746    6.45712    2.32080    4.52267
     274      444        5    -0.35746   15.75271    2.32074    4.52267
     275      444        5    -0.35746   -0.59498   10.93160    0.14050
     276      444        5    -0.35746    8.70050   10.93166    0.14050
     277      444        5    -0.35746    1.81279    9.89175    4.08412
     278      444        5    -0.35746   11.10854    9.89165    4.08499
     279      444        5    -0.35746    4.07089    1.29323    8.47800
     280      444        5    -0.35746   13.36655    1.29321    8.47800
     281      444        5    -0.35746   -1.77359    8.45637   12.69539
     282      444        5    -0.35746    7.52193    8.45637   12.69539
     283      444        5    -0.35746    5.27863   -0.15444   17.07739
     284      444        5    -0.35746   14.57410   -0.15439   17.07739
     285      444        5    -0.35746    2.87052    0.88568   13.13290
     286      444        5    -0.35746   12.16618    0.88575   13.13290
     287      444        5    -0.35746    0.61268    9.48421    8.73989
     288      444        5    -0.35746    9.90837    9.48425    8.73989
     289      444        6    -0.28690    6.09768    5.54038    5.30506
     290      444        6    -0.28690   15.39328    5.54032    5.30523
     291      444        7    -0.71937   -0.50523    2.32279    6.54097
     292      444        7    -0.71937    8.79037    2.32282    6.54097
     293      444        8    -0.57331    5.91009    3.63018    7.23658
     294      444        8    -0.57331   15.20569    3.63010    7.23658
     295      444        8    -0.57331    3.87855    4.37876    7.87761
     296      444        8    -0.57331   13.17416    4.37868    7.87761
     297      444        8    -0.57331    2.65095    7.17332    6.89601
     298      444        8    -0.57331   11.94655    7.17330    6.89601
     299      444        8    -0.64513    3.82202    8.41156    8.37004
     300      444        8    -0.64513   13.11764    8.41156    8.36970
     301      444        8    -0.57331    4.02906    7.90817    4.37718
     302      444        8    -0.57331   13.32474    7.90814    4.37718
     303      444        8    -0.64513    5.68406    9.45094    4.18158
     304      444        8    -0.64513   14.97962    9.45104    4.18192
     305      444        8    -0.57331   -0.55581    7.67266    6.54269
     306      444        8    -0.57331    8.73978    7.67272    6.54269
     307      444        8    -0.57331   -0.95716    5.47031    6.83075
     308      444        8    -0.57331    8.33845    5.47038    6.83075
     309      444        6    -0.28690    1.45253    6.67508    3.28951
     310      444        6    -0.28690   10.74813    6.67523    3.28951
     311      444        7    -0.71937    4.14115    9.89280    2.06737
     312      444        7    -0.71937   13.43678    9.89294    2.06754
     313      444        8    -0.57331    1.25387    8.59070    1.36952
     314      444        8    -0.57331   10.54947    8.59085    1.36952
     315      444        8    -0.57331   -0.77986    7.84352    0.73211
     316      444        8    -0.57331    8.51576    7.84360    0.73211
     317      444        8    -0.57331    7.30210    5.05077    1.71302
     318      444        8    -0.57331   16.59769    5.05070    1.71302
     319      444        8    -0.64513   -0.83753    3.80565    0.23503
     320      444        8    -0.64513    8.45811    3.80575    0.23503
     321      444        8    -0.57331   -0.61743    4.30986    4.22480
     322      444        8    -0.57331    8.67820    4.30999    4.22480
     323      444        8    -0.64513    1.03032    2.76016    4.41815
     324      444        8    -0.64513   10.32593    2.76026    4.41815
     325      444        8    -0.57331    4.09924    4.54365    2.06290
     326      444        8    -0.57331   13.39482    4.54380    2.06290
     327      444        8    -0.57331    3.69587    6.74618    1.77518
     328      444        8    -0.57331   12.99144    6.74631    1.77518
     329      444        6    -0.28690   -1.41417    5.23677   11.91266
     330      444        6    -0.28690    7.88143    5.23680   11.91249
     331      444        7    -0.71937    5.18861    8.45454   10.67709
     332      444        7    -0.71937   14.48426    8.45454   10.67709
     333      444        8    -0.57331   -1.22662    7.14723    9.98165
     334      444        8    -0.57331    8.06901    7.14728    9.98165
     335      444        8    -0.57331    0.80496    6.39877    9.34045
     336      444        8    -0.57331   10.10058    6.39881    9.34045
     337      444        8    -0.57331    2.03249    3.60408   10.32188
     338      444        8    -0.57331   11.32811    3.60409   10.32188
     339      444        8    -0.64513    0.86157    2.36584    8.84767
     340      444        8    -0.64513   10.15722    2.36585    8.84767
     341      444        8    -0.57331    0.65420    2.86909   12.84071
     342      444        8    -0.57331    9.94982    2.86912   12.84071
     343      444        8    -0.64513   -1.00029    1.32574   13.03545
     344      444        8    -0.64513    8.29535    1.32575   13.03545
     345      444        8    -0.57331    5.23915    3.10459   10.67520
     346      444        8    -0.57331   14.53477    3.10456   10.67554
     347      444        8    -0.57331    5.64051    5.30692   10.38731
     348      444        8    -0.57331   14.93612    5.30690   10.38748
     349      444        6    -0.28690    3.23095    4.10184   13.92821
     350      444        6    -0.28690   12.52656    4.10193   13.92838