Created on Tue Feb 06 14:34:32 2018 

        2880 atoms
        3648 bonds
        6912 angles
        8448 dihedrals
        5760 impropers

           4 atom types
           6 bond types
           9 angle types
           2 dihedral types
           1 improper types
           0.000000  39.582000 xlo xhi
           0.000000  34.296974 ylo yhi
           0.000000  43.784000 zlo zhi
         -19.763873  -0.001528   0.001765 xy xz yz

Masses

    1   112.411000000 # Cd3+2
    2     1.007940000 # H_
    3    12.010700000 # C_R
    4    14.006700000 # N_R

Bond Coeffs

    1      152.700732        2.089900  # Cd3+2 N_R
    2      357.440381        1.081418  # H_ C_R
    3      462.655054        1.379256  # C_R C_R
    4      391.669513        1.458000  # C_R C_R
    5      663.718927        1.345073  # C_R N_R
    6      929.109299        1.322497  # N_R N_R

Angle Coeffs

    1                      fourier       33.010492        0.343737        0.374972        0.281246 # N_R Cd3+2 N_R
    2              cosine/periodic      117.010657              -1               3 # C_R C_R C_R
    3              cosine/periodic      101.626578              -1               3 # C_R C_R C_R
    4              cosine/periodic      109.704024              -1               3 # H_ C_R N_R
    5              cosine/periodic      165.695700              -1               3 # N_R C_R C_R
    6              cosine/periodic       76.817955              -1               3 # H_ C_R C_R
    7              cosine/periodic       45.744975              -1               3 # Cd3+2 N_R N_R
    8              cosine/periodic      184.094783              -1               3 # C_R N_R N_R
    9              cosine/periodic       33.294741              -1               3 # Cd3+2 N_R C_R

Dihedral Coeffs

    1        1.497136              -1               2 # C_R C_R C_R H_
    2        0.555556              -1               2 # C_R C_R C_R C_R

Improper Coeffs

    1        2.000000        1.000000       -1.000000        0.000000               0 # C_R C_R C_R C_R

Pair Coeffs

    1        0.228000        2.537280 # Cd3+2 Cd3+2
    2        0.044000        2.571134 # H_ H_
    3        0.105000        3.430851 # C_R C_R
    4        0.069000        3.260689 # N_R N_R

Atoms

       1      444        1     0.77766    8.54892    0.78027   16.41966
       2      444        1     0.77766    3.60801    9.35429   16.41966
       3      444        1     0.77766   18.44443    0.78018   16.41966
       4      444        1     0.77766   13.50354    9.35429   16.41966
       5      444        1     0.77766    1.35216    0.78309    9.12262
       6      444        1     0.77766   -3.58875    9.35715    9.12262
       7      444        1     0.77766   11.24769    0.78297    9.12262
       8      444        1     0.77766    6.30680    9.35705    9.12262
       9      444        1     0.77766    4.95095    7.01200    1.82382
      10      444        1     0.77766    0.01005   15.58606    1.82382
      11      444        1     0.77766   14.84646    7.01192    1.82382
      12      444        1     0.77766    9.90556   15.58601    1.82382
      13      444        1     0.77766   -3.59379    7.79729    5.47081
      14      444        1     0.77766   -8.53469   16.37142    5.47081
      15      444        1     0.77766    6.30174    7.79731    5.47234
      16      444        1     0.77766    1.36080   16.37133    5.47234
      17      444        1     0.77766    3.60265    7.79174   20.06840
      18      444        1     0.77766   -1.33824   16.36583   20.06840
      19      444        1     0.77766   13.49820    7.79169   20.06840
      20      444        1     0.77766    8.55728   16.36575   20.06840
      21      444        1     0.77766    0.00191    1.56382   12.76960
      22      444        1     0.77766   -4.93900   10.13793   12.76960
      23      444        1     0.77766    9.89739    1.56382   12.76960
      24      444        1     0.77766    4.95650   10.13786   12.76960
      25      444        2     0.10234    0.81445    2.81628   17.87000
      26      444        2     0.10234   -4.12639   11.39033   17.87000
      27      444        2     0.10234   10.70999    2.81628   17.87000
      28      444        2     0.10234    5.76899   11.39033   17.87000
      29      444        2     0.10234    1.65813    4.29674   13.89047
      30      444        2     0.10234   -3.28284   12.87089   13.89179
      31      444        2     0.10234   11.55361    4.29677   13.89179
      32      444        2     0.10234    6.61280   12.87074   13.89047
      33      444        2     0.10234   -2.91885    6.46542   10.57340
      34      444        2     0.10234   -7.85985   15.03944   10.57340
      35      444        2     0.10234    6.97659    6.46525   10.57340
      36      444        2     0.10234    2.03569   15.03931   10.57340
      37      444        2     0.10234   -2.06392    4.99238    6.59496
      38      444        2     0.10234   -7.00470   13.56654    6.59387
      39      444        2     0.10234    7.83178    4.99241    6.59475
      40      444        2     0.10234    2.89079   13.56642    6.59475
      41      444        2     0.10234    2.10869    7.87101    3.27482
      42      444        2     0.10234   -2.83222   16.44498    3.26191
      43      444        2     0.10234   12.00418    7.87093    3.27482
      44      444        2     0.10234    7.06326   16.44495    3.26191
      45      444        2     0.10234    0.40556    7.87211   21.18839
      46      444        2     0.10234   -4.53534   16.44644   21.18839
      47      444        2     0.10234   10.30109    7.87213   21.18708
      48      444        2     0.10234    5.36018   16.44624   21.18839
      49      444        2     0.10234    4.14368    5.76001    6.92532
      50      444        2     0.10234   -0.79730   14.33403    6.92532
      51      444        2     0.10234   14.03907    5.75999    6.92532
      52      444        2     0.10234    9.09818   14.33410    6.92532
      53      444        2     0.10234    3.29287    4.28136    2.94798
      54      444        2     0.10234   -1.64797   12.85534    2.94798
      55      444        2     0.10234   13.18851    4.28119    2.94798
      56      444        2     0.10234    8.24763   12.85528    2.94666
      57      444        2     0.10234    7.87141    2.10768   21.52181
      58      444        2     0.10234    2.93038   10.68168   21.52181
      59      444        2     0.10234   17.76696    2.10763   21.52181
      60      444        2     0.10234   12.82597   10.68163   21.52181
      61      444        2     0.10234    7.02278    3.58598   17.54381
      62      444        2     0.10234    2.08185   12.16000   17.54381
      63      444        2     0.10234   16.91820    3.58584   17.54381
      64      444        2     0.10234   11.97741   12.15998   17.54381
      65      444        2     0.10234    2.84340    0.70788   14.22279
      66      444        2     0.10234   -2.09753    9.28199   14.22279
      67      444        2     0.10234   12.73890    0.70802   14.22104
      68      444        2     0.10234    7.79798    9.28204   14.22104
      69      444        2     0.10234    4.54802    0.70081   10.24502
      70      444        2     0.10234   -0.39289    9.27488   10.24502
      71      444        2     0.10234   14.44350    0.70043   10.24502
      72      444        2     0.10234    9.50261    9.27457   10.24502
      73      444        2     0.10234    5.76573    5.75745   18.61739
      74      444        2     0.10234    0.82462   14.33138   18.61696
      75      444        2     0.10234   15.66118    5.75733   18.61739
      76      444        2     0.10234   10.72025   14.33136   18.61739
      77      444        2     0.10234    6.61738    4.28235    0.70273
      78      444        2     0.10234    1.67655   12.85649    0.70383
      79      444        2     0.10234   16.51292    4.28231    0.70405
      80      444        2     0.10234   11.57207   12.85642    0.70405
      81      444        2     0.10234    2.03193    2.11238    4.02222
      82      444        2     0.10234   -2.90887   10.68633    4.02222
      83      444        2     0.10234   11.92732    2.11236    4.02222
      84      444        2     0.10234    6.98648   10.68645    4.02222
      85      444        2     0.10234    2.89270    3.58266    8.00043
      86      444        2     0.10234   -2.04830   12.15673    8.00043
      87      444        2     0.10234   12.78844    3.58245    8.00043
      88      444        2     0.10234    7.84751   12.15656    8.00043
      89      444        2     0.10234    7.05731    0.70066   11.31882
      90      444        2     0.10234    2.11640    9.27480   11.31882
      91      444        2     0.10234   16.95278    0.70068   11.31882
      92      444        2     0.10234   12.01188    9.27470   11.31882
      93      444        2     0.10234    5.35434    0.70480   15.29747
      94      444        2     0.10234    0.41340    9.27879   15.29747
      95      444        2     0.10234   15.24984    0.70456   15.29747
      96      444        2     0.10234   10.30894    9.27875   15.29747
      97      444        2     0.10234   -0.80763    2.81846    7.66942
      98      444        2     0.10234   -5.74854   11.39253    7.66942
      99      444        2     0.10234    9.08798    2.81837    7.66942
     100      444        2     0.10234    4.14700   11.39239    7.66942
     101      444        2     0.10234   -1.66573    4.29133   11.64742
     102      444        2     0.10234   -6.60664   12.86540   11.64742
     103      444        2     0.10234    8.22978    4.29124   11.64720
     104      444        2     0.10234    3.28892   12.86533   11.64720
     105      444        2     0.10234    2.92071    6.46704   14.96690
     106      444        2     0.10234   -2.02007   15.04110   14.96690
     107      444        2     0.10234   12.81627    6.46704   14.96690
     108      444        2     0.10234    7.87538   15.04104   14.96690
     109      444        2     0.10234    2.06457    4.99188   18.94424
     110      444        2     0.10234   -2.87652   13.56606   18.94424
     111      444        2     0.10234   11.96008    4.99187   18.94424
     112      444        2     0.10234    7.01912   13.56592   18.94424
     113      444        2     0.10234   -2.10491    7.87220    0.37041
     114      444        2     0.10234   -7.04581   16.44622    0.37041
     115      444        2     0.10234    7.79059    7.87210    0.37041
     116      444        2     0.10234    2.84967   16.44625    0.37041
     117      444        2     0.10234   -0.40042    7.87639    4.34841
     118      444        2     0.10234   -5.34134   16.45068    4.34841
     119      444        2     0.10234    9.49507    7.87654    4.34841
     120      444        2     0.10234    4.55416   16.45048    4.34841
     121      444        3    -0.06746    1.56662    4.04231   16.13200
     122      444        3    -0.06746   -3.37430   12.61643   16.13200
     123      444        3    -0.06746   11.46215    4.04233   16.13200
     124      444        3    -0.06746    6.52123   12.61635   16.13200
     125      444        3     0.00136    0.92476    2.99053   16.80211
     126      444        3     0.00136   -4.01612   11.56462   16.80386
     127      444        3     0.00136   10.82027    2.99055   16.80386
     128      444        3     0.00136    5.87932   11.56459   16.80211
     129      444        3     0.00136    1.33862    3.75248   14.77601
     130      444        3     0.00136   -3.60233   12.32662   14.77601
     131      444        3     0.00136   11.23412    3.75251   14.77491
     132      444        3     0.00136    6.29325   12.32652   14.77601
     133      444        3    -0.06746   -2.23624    5.19957    8.83517
     134      444        3    -0.06746   -7.17713   13.77364    8.83517
     135      444        3    -0.06746    7.65932    5.19950    8.83517
     136      444        3    -0.06746    2.71840   13.77352    8.83517
     137      444        3     0.00136   -2.82419    6.28229    9.50726
     138      444        3     0.00136   -7.76514   14.85632    9.50726
     139      444        3     0.00136    7.07130    6.28217    9.50726
     140      444        3     0.00136    2.13037   14.85620    9.50726
     141      444        3     0.00136   -2.37314    5.54220    7.47918
     142      444        3     0.00136   -7.31396   14.11632    7.47918
     143      444        3     0.00136    7.52251    5.54218    7.47831
     144      444        3     0.00136    2.58154   14.11618    7.47831
     145      444        3    -0.06746    0.67169    7.91579    1.53638
     146      444        3    -0.06746   -4.26920   16.48993    1.53638
     147      444        3    -0.06746   10.56720    7.91577    1.53463
     148      444        3    -0.06746    5.62630   16.48982    1.53638
     149      444        3     0.00136    1.90311    7.88134    2.20868
     150      444        3     0.00136   -3.03778   16.45540    2.20868
     151      444        3     0.00136   11.79861    7.88128    2.20868
     152      444        3     0.00136    6.85771   16.45533    2.20868
     153      444        3     0.00136    1.03706    7.86343    0.18039
     154      444        3     0.00136   -3.90382   16.43765    0.18039
     155      444        3     0.00136   10.93259    7.86341    0.17951
     156      444        3     0.00136    5.99169   16.43750    0.18039
     157      444        3    -0.06746    3.38810    4.53489    5.18819
     158      444        3    -0.06746   -1.55281   13.10889    5.18797
     159      444        3    -0.06746   13.28362    4.53478    5.18819
     160      444        3    -0.06746    8.34273   13.10889    5.18819
     161      444        3     0.00136    4.03159    5.58610    5.85939
     162      444        3     0.00136   -0.90935   14.16012    5.85939
     163      444        3     0.00136   13.92704    5.58605    5.85939
     164      444        3     0.00136    8.98616   14.16014    5.85939
     165      444        3     0.00136    3.61408    4.82512    3.83176
     166      444        3     0.00136   -1.32679   13.39912    3.83176
     167      444        3     0.00136   13.50964    4.82500    3.83176
     168      444        3     0.00136    8.56877   13.39909    3.83176
     169      444        3    -0.06746    7.19172    3.37595   19.78380
     170      444        3    -0.06746    2.25072   11.94997   19.78402
     171      444        3    -0.06746   17.08721    3.37586   19.78424
     172      444        3    -0.06746   12.14632   11.94993   19.78424
     173      444        3     0.00136    7.77827    2.29217   20.44713
     174      444        3     0.00136    2.83728   10.86617   20.45567
     175      444        3     0.00136   17.67379    2.29210   20.45588
     176      444        3     0.00136   12.73286   10.86614   20.45588
     177      444        3     0.00136    7.33049    3.03494   18.42781
     178      444        3     0.00136    2.38953   11.60897   18.42781
     179      444        3     0.00136   17.22593    3.03484   18.42781
     180      444        3     0.00136   12.28510   11.60895   18.42650
     181      444        3    -0.06746    4.28143    0.66021   12.48523
     182      444        3    -0.06746   -0.65949    9.23429   12.48523
     183      444        3    -0.06746   14.17692    0.66009   12.48523
     184      444        3    -0.06746    9.23602    9.23417   12.48523
     185      444        3     0.00136    3.04964    0.69578   13.15687
     186      444        3     0.00136   -1.89129    9.26989   13.15687
     187      444        3     0.00136   12.94513    0.69580   13.15687
     188      444        3     0.00136    8.00421    9.26985   13.15687
     189      444        3     0.00136    3.91681    0.71040   11.12902
     190      444        3     0.00136   -1.02410    9.28447   11.12902
     191      444        3     0.00136   13.81230    0.71014   11.12902
     192      444        3     0.00136    8.87140    9.28426   11.12902
     193      444        3    -0.06746    6.52239    4.53498   20.35606
     194      444        3    -0.06746    1.58141   13.10900   20.35518
     195      444        3    -0.06746   16.41788    4.53490   20.35606
     196      444        3    -0.06746   11.47699   13.10897   20.35606
     197      444        3     0.00136    5.87695    5.58427   19.68354
     198      444        3     0.00136    0.93591   14.15826   19.68354
     199      444        3     0.00136   15.77243    5.58417   19.68354
     200      444        3     0.00136   10.83151   14.15822   19.68354
     201      444        3     0.00136    6.29477    4.82552   21.71030
     202      444        3     0.00136    1.35387   13.39961   21.71183
     203      444        3     0.00136   16.19030    4.82546   21.71205
     204      444        3     0.00136   11.24942   13.39955   21.71205
     205      444        3    -0.06746    2.71831    3.37632    5.75979
     206      444        3    -0.06746   -2.22258   11.95033    5.76022
     207      444        3    -0.06746   12.61387    3.37622    5.76044
     208      444        3    -0.06746    7.67299   11.95031    5.76044
     209      444        3     0.00136    2.12820    2.29471    5.08836
     210      444        3     0.00136   -2.81265   10.86868    5.08770
     211      444        3     0.00136   12.02368    2.29464    5.08836
     212      444        3     0.00136    7.08280   10.86873    5.08836
     213      444        3     0.00136    2.58068    3.03416    7.11643
     214      444        3     0.00136   -2.36029   11.60820    7.11490
     215      444        3     0.00136   12.47634    3.03399    7.11643
     216      444        3     0.00136    7.53543   11.60810    7.11643
     217      444        3    -0.06746    5.61979    0.65932   13.05726
     218      444        3    -0.06746    0.67888    9.23339   13.05726
     219      444        3    -0.06746   15.51528    0.65920   13.05726
     220      444        3    -0.06746   10.57439    9.23331   13.05726
     221      444        3     0.00136    6.85140    0.69148   12.38496
     222      444        3     0.00136    1.91049    9.26559   12.38496
     223      444        3     0.00136   16.74688    0.69145   12.38496
     224      444        3     0.00136   11.80598    9.26550   12.38496
     225      444        3     0.00136    5.98507    0.71147   14.41325
     226      444        3     0.00136    1.04415    9.28549   14.41325
     227      444        3     0.00136   15.88057    0.71130   14.41325
     228      444        3     0.00136   10.93966    9.28544   14.41325
     229      444        3    -0.06746   -1.56753    4.04025    9.40721
     230      444        3    -0.06746   -6.50844   12.61433    9.40721
     231      444        3    -0.06746    8.32804    4.04017    9.40699
     232      444        3    -0.06746    3.38710   12.61422    9.40699
     233      444        3     0.00136   -0.92076    2.99131    8.73556
     234      444        3     0.00136   -5.86166   11.56536    8.73556
     235      444        3     0.00136    8.97483    2.99122    8.73535
     236      444        3     0.00136    4.03388   11.56526    8.73491
     237      444        3     0.00136   -1.34228    3.74918   10.76342
     238      444        3     0.00136   -6.28319   12.32325   10.76342
     239      444        3     0.00136    8.55324    3.74911   10.76342
     240      444        3     0.00136    3.61235   12.32318   10.76342
     241      444        3    -0.06746    2.23659    5.20078   16.70425
     242      444        3    -0.06746   -2.70435   13.77490   16.70425
     243      444        3    -0.06746   12.13211    5.20078   16.70425
     244      444        3    -0.06746    7.19118   13.77482   16.70425
     245      444        3     0.00136    2.82553    6.28342   16.03283
     246      444        3     0.00136   -2.11533   14.85751   16.03283
     247      444        3     0.00136   12.72108    6.28344   16.03283
     248      444        3     0.00136    7.78017   14.85744   16.03283
     249      444        3     0.00136    2.37550    5.54149   18.06046
     250      444        3     0.00136   -2.56551   14.11563   18.06046
     251      444        3     0.00136   12.27101    5.54147   18.06046
     252      444        3     0.00136    7.33007   14.11553   18.06046
     253      444        3    -0.06746   -0.66672    7.91739    2.10820
     254      444        3    -0.06746   -5.60761   16.49154    2.10820
     255      444        3    -0.06746    9.22877    7.91740    2.10820
     256      444        3    -0.06746    4.28787   16.49144    2.10820
     257      444        3     0.00136   -1.89857    7.88344    1.43655
     258      444        3     0.00136   -6.83946   16.45751    1.43655
     259      444        3     0.00136    7.99693    7.88341    1.43655
     260      444        3     0.00136    3.05603   16.45749    1.43655
     261      444        3     0.00136   -1.03148    7.86773    3.46441
     262      444        3     0.00136   -5.97240   16.44195    3.46441
     263      444        3     0.00136    8.86401    7.86781    3.46441
     264      444        3     0.00136    3.92311   16.44180    3.46441
     265      444        4    -0.26439    0.35865    2.13980   15.91461
     266      444        4    -0.26439   -4.58223   10.71388   15.91461
     267      444        4    -0.26439   10.25416    2.13981   15.91461
     268      444        4    -0.26439    5.31323   10.71385   15.91461
     269      444        4    -0.26439    0.60725    2.62294   14.65319
     270      444        4    -0.26439   -4.33369   11.19706   14.65319
     271      444        4    -0.26439   10.50273    2.62297   14.65319
     272      444        4    -0.26439    5.56185   11.19699   14.65319
     273      444        4    -0.26439   -3.27568    7.19915    8.61822
     274      444        4    -0.26439   -8.21661   15.77322    8.61822
     275      444        4    -0.26439    6.61983    7.19906    8.61800
     276      444        4    -0.26439    1.67890   15.77310    8.61800
     277      444        4    -0.26439   -2.98328    6.74156    7.35659
     278      444        4    -0.26439   -7.92413   15.31566    7.35659
     279      444        4    -0.26439    6.91234    6.74152    7.35659
     280      444        4    -0.26439    1.97136   15.31554    7.35659
     281      444        4    -0.26439    2.92305    7.81383    1.31790
     282      444        4    -0.26439   -2.01785   16.38788    1.31987
     283      444        4    -0.26439   12.81856    7.81374    1.31790
     284      444        4    -0.26439    7.87764   16.38780    1.31987
     285      444        4    -0.26439    2.38079    7.79054    0.00000
     286      444        4    -0.26439   -2.56012   16.36473    0.00000
     287      444        4    -0.26439   12.27629    7.79051    0.00000
     288      444        4    -0.26439    7.33540   16.36460    0.00000
     289      444        4    -0.26439    4.59671    6.43682    4.96948
     290      444        4    -0.26439   -0.34422   15.01085    4.81624
     291      444        4    -0.26439   14.49215    6.43678    4.96948
     292      444        4    -0.26439    9.55127   15.01087    4.96948
     293      444        4    -0.26439    4.34580    5.95434    3.70829
     294      444        4    -0.26439   -0.59510   14.52836    3.70829
     295      444        4    -0.26439   14.24131    5.95426    3.70829
     296      444        4    -0.26439    9.30043   14.52835    3.70829
     297      444        4    -0.26439    8.23061    1.37620   19.56488
     298      444        4    -0.26439    3.28961    9.95022   19.56488
     299      444        4    -0.26439   18.12612    1.37611   19.56619
     300      444        4    -0.26439   13.18519    9.95019   19.56619
     301      444        4    -0.26439    7.94037    1.83552   18.30478
     302      444        4    -0.26439    2.99941   10.40954   18.30478
     303      444        4    -0.26439   17.83583    1.83542   18.30478
     304      444        4    -0.26439   12.89498   10.40953   18.30478
     305      444        4    -0.26439    2.03023    0.76204   12.26718
     306      444        4    -0.26439   -2.91067    9.33613   12.26718
     307      444        4    -0.26439   11.92573    0.76201   12.26718
     308      444        4    -0.26439    6.98483    9.33606   12.26718
     309      444        4    -0.26439    2.57314    0.78286   11.00577
     310      444        4    -0.26439   -2.36777    9.35695   11.00577
     311      444        4    -0.26439   12.46862    0.78265   11.00577
     312      444        4    -0.26439    7.52772    9.35674   11.00577
     313      444        4    -0.26439    5.30977    6.43462   20.57257
     314      444        4    -0.26439    0.36880   15.00864   20.57191
     315      444        4    -0.26439   15.20528    6.43453   20.57257
     316      444        4    -0.26439   10.26435   15.00860   20.57257
     317      444        4    -0.26439    5.56037    5.95339   21.83377
     318      444        4    -0.26439    0.61949   14.52748   21.83377
     319      444        4    -0.26439   15.45592    5.95334   21.83377
     320      444        4    -0.26439   10.51503   14.52741   21.83377
     321      444        4    -0.26439    1.67295    1.37979    5.97761
     322      444        4    -0.26439   -3.26792    9.95377    5.97761
     323      444        4    -0.26439   11.56849    1.37968    5.97761
     324      444        4    -0.26439    6.62761    9.95379    5.97761
     325      444        4    -0.26439    1.96763    1.83624    7.23903
     326      444        4    -0.26439   -2.97331   10.41026    7.23750
     327      444        4    -0.26439   11.86327    1.83607    7.23903
     328      444        4    -0.26439    6.92236   10.41018    7.23903
     329      444        4    -0.26439    7.87129    0.75740   13.27421
     330      444        4    -0.26439    2.93038    9.33147   13.27421
     331      444        4    -0.26439   17.76678    0.75735   13.27421
     332      444        4    -0.26439   12.82588    9.33144   13.27421
     333      444        4    -0.26439    7.32885    0.78233   14.53563
     334      444        4    -0.26439    2.38793    9.35635   14.53563
     335      444        4    -0.26439   17.22437    0.78220   14.53563
     336      444        4    -0.26439   12.28345    9.35635   14.53563
     337      444        4    -0.26439   -0.35504    2.14069    9.62526
     338      444        4    -0.26439   -5.29597   10.71476    9.62526
     339      444        4    -0.26439    9.54052    2.14062    9.62372
     340      444        4    -0.26439    4.59958   10.71468    9.62526
     341      444        4    -0.26439   -0.60793    2.62159   10.88667
     342      444        4    -0.26439   -5.54884   11.19566   10.88470
     343      444        4    -0.26439    9.28760    2.62150   10.88645
     344      444        4    -0.26439    4.34671   11.19557   10.88645
     345      444        4    -0.26439    3.28127    7.19751   16.92273
     346      444        4    -0.26439   -1.65961   15.77160   16.92273
     347      444        4    -0.26439   13.17682    7.19749   16.92273
     348      444        4    -0.26439    8.23592   15.77151   16.92273
     349      444        4    -0.26439    2.98817    6.73951   18.18393
     350      444        4    -0.26439   -1.95281   15.31363   18.18393
     351      444        4    -0.26439   12.88370    6.73949   18.18393
     352      444        4    -0.26439    7.94277   15.31353   18.18393
     353      444        4    -0.26439   -2.91808    7.81871    2.32624
     354      444        4    -0.26439   -7.85897   16.39281    2.32624
     355      444        4    -0.26439    6.97743    7.81872    2.32493
     356      444        4    -0.26439    2.03651   16.39278    2.32624
     357      444        4    -0.26439   -2.37518    7.79662    3.58744
     358      444        4    -0.26439   -7.31610   16.37081    3.58744
     359      444        4    -0.26439    7.52030    7.79672    3.58744
     360      444        4    -0.26439    2.57940   16.37071    3.58744
     361      444        1     0.77766    8.54816    0.78115   38.31166
     362      444        1     0.77766    3.60724    9.35517   38.31166
     363      444        1     0.77766   18.44367    0.78106   38.31166
     364      444        1     0.77766   13.50278    9.35517   38.31166
     365      444        1     0.77766    1.35140    0.78398   31.01462
     366      444        1     0.77766   -3.58952    9.35803   31.01462
     367      444        1     0.77766   11.24693    0.78386   31.01462
     368      444        1     0.77766    6.30604    9.35793   31.01462
     369      444        1     0.77766    4.95018    7.01289   23.71582
     370      444        1     0.77766    0.00928   15.58694   23.71582
     371      444        1     0.77766   14.84569    7.01280   23.71582
     372      444        1     0.77766    9.90479   15.58689   23.71582
     373      444        1     0.77766   -3.59455    7.79818   27.36281
     374      444        1     0.77766   -8.53545   16.37230   27.36281
     375      444        1     0.77766    6.30098    7.79819   27.36434
     376      444        1     0.77766    1.36004   16.37221   27.36434
     377      444        1     0.77766    3.60189    7.79263   41.96040
     378      444        1     0.77766   -1.33901   16.36672   41.96040
     379      444        1     0.77766   13.49744    7.79258   41.96040
     380      444        1     0.77766    8.55652   16.36663   41.96040
     381      444        1     0.77766    0.00114    1.56470   34.66160
     382      444        1     0.77766   -4.93976   10.13881   34.66160
     383      444        1     0.77766    9.89662    1.56470   34.66160
     384      444        1     0.77766    4.95574   10.13874   34.66160
     385      444        2     0.10234    0.81369    2.81716   39.76200