Created on Tue Feb 06 14:58:46 2018 

        1696 atoms
        2048 bonds
        3648 angles
        3840 dihedrals
        2304 impropers

           5 atom types
           5 bond types
           8 angle types
           3 dihedral types
           1 improper types
           0.000000  36.976000 xlo xhi
           0.000000  31.988670 ylo yhi
           0.000000  30.089840 zlo zhi
          18.493986  18.493932  10.692690 xy xz yz

Masses

    1    65.380000000 # Zn3f2
    2     1.007940000 # H_
    3    12.010700000 # C_R
    4    15.999400000 # O_2
    5    15.999400000 # O_3_f

Bond Coeffs

    1      122.127512        2.014866  # Zn3f2 O_2
    2      357.440381        1.081418  # H_ C_R
    3      462.655054        1.379256  # C_R C_R
    4      714.557442        1.269010  # C_R O_2
    5      391.669513        1.458000  # C_R C_R

Angle Coeffs

    1                      fourier       32.394397        0.343737        0.374972        0.281246 # O_2 Zn3f2 O_3_f
    2              cosine/periodic       76.817955              -1               3 # H_ C_R C_R
    3              cosine/periodic      117.010657              -1               3 # C_R C_R C_R
    4              cosine/periodic      148.862838              -1               3 # O_2 C_R C_R
    5              cosine/periodic      256.805977              -1               3 # O_2 C_R O_2
    6              cosine/periodic      101.626578              -1               3 # C_R C_R C_R
    7              cosine/periodic       33.013732              -1               3 # C_R O_2 Zn3f2
    8                      fourier       10.476826        0.343737        0.374972        0.281246 # Zn3f2 O_3_f Zn3f2

Dihedral Coeffs

    1        1.497136              -1               2 # H_ C_R C_R H_
    2        2.245703              -1               2 # C_R C_R O_2 Zn3f2
    3        0.555556              -1               2 # O_2 C_R C_R C_R

Improper Coeffs

    1        2.000000        1.000000       -1.000000        0.000000               0 # C_R C_R H_ C_R

Pair Coeffs

    1        0.124000        2.461553 # Zn3f2 Zn3f2
    2        0.044000        2.571134 # H_ H_
    3        0.105000        3.430851 # C_R C_R
    4        0.060000        3.118146 # O_2 O_2
    5        0.060000        3.118146 # O_3_f O_3_f

Atoms

       1      444        1     1.11923   24.22312   15.82909    9.19711
       2      444        1     1.11923    5.73419    1.45228    2.98988
       3      444        1     1.11923   24.22263   13.97780   11.81989
       4      444        1     1.11923    5.73350    3.30653    0.36093
       5      444        1     1.11923   25.82704   13.05019    9.19861
       6      444        1     1.11923    4.13010    4.23779    2.98988
       7      444        1     1.11923   22.61433   13.04607    9.19395
       8      444        1     1.11923    7.34257    4.23703    2.98792
       9      444        1     1.11923   11.15470    8.28974    5.84585
      10      444        1     1.11923   32.85156   17.10207   12.05444
      11      444        1     1.11923   12.75882    7.36200    3.22413
      12      444        1     1.11923   31.24822   18.03342   14.68354
      13      444        1     1.11923   12.75866    5.51087    5.84736
      14      444        1     1.11923   31.24758   19.88765   12.05459
      15      444        1     1.11923   14.36672    8.29343    5.84931
      16      444        1     1.11923   29.63904   17.10286   12.05625
      17      444        2     0.10505   19.44120    3.03456    5.41437
      18      444        2     0.10505   26.91057   18.00689    6.84664
      19      444        2     0.10505   15.02795   13.75448    1.04878
      20      444        2     0.10505   24.26757   17.05423   14.65586
      21      444        2     0.10505   12.33603   10.22209   12.57906
      22      444        2     0.10505   29.04834   11.23721   11.14031
      23      444        2     0.10505   12.34135   15.30257    5.41060
      24      444        2     0.10505   29.05327   14.27904    6.84303
      25      444        2     0.10505   19.44484    6.12473    1.05029
      26      444        2     0.10505   26.91439   12.48652   14.65796
      27      444        2     0.10505   15.02461    5.57878   12.57800
      28      444        2     0.10505   24.26404   19.52762   11.13881
      29      444        2     0.10505   10.54023    3.02237    5.37705
      30      444        2     0.10505   21.55972   18.00360    6.81204
      31      444        2     0.10505   17.64492   15.29113    5.37254
      32      444        2     0.10505   19.42716   14.27050    6.81460
      33      444        2     0.10505   10.53721    6.08228    1.04863
      34      444        2     0.10505   21.55694   12.44821   14.66383
      35      444        2     0.10505   17.64711   10.18477   12.57846
      36      444        2     0.10505   19.42591   11.20696   11.13324
      37      444        2     0.10505    7.89041    7.61905    5.37480
      38      444        2     0.10505   26.38454    9.66009    6.81084
      39      444        2     0.10505   22.08143    7.61836    5.37269
      40      444        2     0.10505   22.08540    9.67151    6.81595
      41      444        2     0.10505   24.64046    6.03730    9.63386
      42      444        2     0.10505    7.92853    7.06082    8.20144
      43      444        2     0.10505   17.53627   15.21470   13.99328
      44      444        2     0.10505   10.06726    8.85324    0.38650
      45      444        2     0.10505   21.95680   15.76093    2.46586
      46      444        2     0.10505   12.71771    1.81230    3.90566
      47      444        2     0.10505   17.54060   18.30530    9.63010
      48      444        2     0.10505   10.06300    3.32821    8.18444
      49      444        2     0.10505   21.95341    7.58512   13.99478
      50      444        2     0.10505   12.71421    4.28565    0.38846
      51      444        2     0.10505   24.64563   11.11766    2.46541
      52      444        2     0.10505    7.93330   10.10255    3.90416
      53      444        2     0.10505   29.09130   13.72075    9.66967
      54      444        2     0.10505   10.59717   11.67971    8.23363
      55      444        2     0.10505   14.89964   13.72100    9.67087
      56      444        2     0.10505   14.89596   11.66803    8.22807
      57      444        2     0.10505   26.44462   15.25766   13.99584
      58      444        2     0.10505   15.42484    8.89161    0.38049
      59      444        2     0.10505   19.33462   11.15491    2.46586
      60      444        2     0.10505   17.55227   10.13054    3.90521
      61      444        2     0.10505   26.44157   18.31755    9.66741
      62      444        2     0.10505   15.42208    3.33633    8.23243
      63      444        2     0.10505   19.33669    6.04885    9.67208
      64      444        2     0.10505   17.55446    7.06948    8.23002
      65      444        3    -0.05243   28.75842   17.99005    5.73287
      66      444        3    -0.05243   27.77013   17.42143    6.52859
      67      444        3    -0.05243   24.27237   19.18297   15.00731
      68      444        3    -0.05243   24.26775   18.04558   14.20857
      69      444        3    -0.05243   29.96461   10.72034   13.02379
      70      444        3    -0.05243   28.97655   11.28410   12.22445
      71      444        3    -0.05243   29.96794   15.88575    5.73076
      72      444        3    -0.05243   28.97982   15.31690    6.52649
      73      444        3    -0.05243   28.76021   11.42563   15.00941
      74      444        3    -0.05243   27.77183   11.98934   14.21023
      75      444        3    -0.05243   24.27092   20.57916   13.02258
      76      444        3    -0.05243   24.26580   19.44174   12.22294
      77      444        3     0.71472    8.30379    1.83107    4.42772
      78      444        3    -0.12707   18.61089   17.21378    5.28934
      79      444        3    -0.05243   19.71243   17.97920    5.69300
      80      444        3    -0.05243   20.70089   17.41465    6.49369
      81      444        3    -0.05243   18.50652   15.87385    5.69405
      82      444        3    -0.05243   19.49391   15.30843    6.49309
      83      444        3    -0.12707   20.59858   16.07501    6.89870
      84      444        3     0.71472   21.65934   15.46446    7.75821
      85      444        3     0.71472    8.30322    4.78974    0.23876
      86      444        3    -0.12707   18.61021   10.74591   14.42071
      87      444        3    -0.05243   19.71101   11.38315   15.00987
      88      444        3    -0.05243   20.69925   11.95145   14.21294
      89      444        3    -0.05243   18.50767   10.68274   13.02243
      90      444        3    -0.05243   19.49525   11.25028   12.22505
      91      444        3    -0.12707   20.59846   11.88880   12.81466
      92      444        3     0.71472   21.65913   12.49812   11.95394
      93      444        3     0.71472    5.74179    6.27400    4.42712
      94      444        3    -0.12707   24.22960    7.49774    5.28859
      95      444        3    -0.05243   25.44303    8.07138    5.69270
      96      444        3    -0.05243   25.44597    9.20902    6.49294
      97      444        3    -0.05243   23.01609    8.07487    5.69405
      98      444        3    -0.05243   23.01835    9.21226    6.49369
      99      444        3    -0.12707   24.23369    9.78747    6.89900
     100      444        3     0.71472   24.23341   11.01055    7.75942
     101      444        3     0.71472    3.18004    1.83707    4.45059
     102      444        3    -0.12707   29.86225   17.22514    5.32500
     103      444        3    -0.12707   27.87298   16.08024    6.92999
     104      444        3     0.71472   26.80704   15.46642    7.77852
     105      444        3     0.71472    5.76125    0.34181    0.23786
     106      444        3    -0.12707   24.27032   20.45808   14.42086
     107      444        3    -0.12707   24.26297   18.16659   12.81000
     108      444        3     0.71472   24.24923   16.94480   11.94958
     109      444        3     0.71472    3.17946    4.81271    0.23876
     110      444        3    -0.12707   29.86151   10.78363   14.42206
     111      444        3    -0.12707   27.87228   11.92155   12.81180
     112      444        3     0.71472   26.80664   12.51931   11.95123
     113      444        3    -0.05243    7.01387    5.45413    9.31371
     114      444        3    -0.05243    8.00198    6.02297    8.51798
     115      444        3    -0.05243    8.22138    9.91411    0.03490
     116      444        3    -0.05243    9.20972    9.35033    0.83409
     117      444        3    -0.05243   12.71077    0.76071    2.02174
     118      444        3    -0.05243   12.71564    1.89799    2.82092
     119      444        3    -0.05243    8.22339    3.34983    9.31160
     120      444        3    -0.05243    9.21177    3.91851    8.51603
     121      444        3    -0.05243   12.70900    2.15669    0.03641
     122      444        3    -0.05243   12.71413    3.29435    0.83590
     123      444        3    -0.05243    7.01697   10.61940    2.02053
     124      444        3    -0.05243    8.00510   10.05562    2.82002
     125      444        3     0.71472   31.23991   15.06585   10.61735
     126      444        3    -0.12707   12.75216   13.84208    9.75603
     127      444        3    -0.05243   11.53875   13.26845    9.35192
     128      444        3    -0.05243   11.53581   12.13080    8.55168
     129      444        3    -0.05243   13.96565   13.26490    9.35057
     130      444        3    -0.05243   13.96341   12.12751    8.55093
     131      444        3    -0.12707   12.74811   11.55235    8.14562
     132      444        3     0.71472   12.74835   10.32930    7.28505
     133      444        3     0.71472   28.67857   16.55017   14.80571
     134      444        3    -0.12707   18.37152   10.59390    0.62361
     135      444        3    -0.05243   17.27074    9.95664    0.03445
     136      444        3    -0.05243   16.28249    9.38838    0.83138
     137      444        3    -0.05243   18.47417   10.65698    2.02204
     138      444        3    -0.05243   17.48650   10.08940    2.81927
     139      444        3    -0.12707   16.38331    9.45091    2.22966
     140      444        3     0.71472   15.32261    8.84167    3.09038
     141      444        3     0.71472   28.67788   19.50889   10.61675
     142      444        3    -0.12707   18.37078    4.12614    9.75513
     143      444        3    -0.05243   17.26871    3.36041    9.35057
     144      444        3    -0.05243   16.28080    3.92522    8.55063
     145      444        3    -0.05243   18.47511    5.46613    9.35057
     146      444        3    -0.05243   17.48772    6.03149    8.55138
     147      444        3    -0.12707   16.38311    5.26492    8.14577
     148      444        3     0.71472   15.32234    5.87541    7.28610
     149      444        3     0.71472   33.80175   19.50281   10.59388
     150      444        3    -0.12707    7.11954    4.11474    9.71947
     151      444        3    -0.12707    9.10882    5.25962    8.11448
     152      444        3     0.71472   10.17477    5.87346    7.26594
     153      444        3     0.71472   33.80227   16.52714   14.80571
     154      444        3    -0.12707    7.12015   10.55613    0.62241
     155      444        3    -0.12707    9.10938    9.41823    2.23267
     156      444        3     0.71472   10.17493    8.82042    3.09309
     157      444        3     0.71472   31.22056   20.99813   14.80661
     158      444        3    -0.12707   12.71145    0.88180    0.62346
     159      444        3    -0.12707   12.71873    3.17329    2.23432
     160      444        3     0.71472   12.73257    4.39513    3.09489
     161      444        4    -0.61346   25.82355   16.21395    8.10786
     162      444        4    -0.61346   21.50511    3.05799    4.11283
     163      444        4    -0.61346   24.24121   15.81336   12.54445
     164      444        4    -0.61346   14.99890   16.15130    1.50163
     165      444        4    -0.61346   26.96024   12.42117   10.68596
     166      444        4    -0.61346   13.39663    9.58388   14.68399
     167      444        4    -0.61346   26.96063   14.24056    8.10711
     168      444        4    -0.61346   13.39945   17.07618    4.11027
     169      444        4    -0.61346   25.82389   13.07988   12.54671
     170      444        4    -0.61346   21.50633    4.90242    1.50254
     171      444        4    -0.61346   24.24352   17.12588   10.68340
     172      444        4    -0.61346   15.00038    6.81613   14.68324
     173      444        4    -0.61346   22.63693   16.21662    8.09206
     174      444        4    -0.61346   21.50109   14.24043    8.08830
     175      444        4    -0.61346    8.46690    3.05292    4.09493
     176      444        4    -0.61346   16.57272   17.07372    4.09763
     177      444        4    -0.61346   22.63616   13.06362   12.55258
     178      444        4    -0.61346   21.50067   12.40265   10.68942
     179      444        4    -0.61346    8.46593    4.88385    1.50163
     180      444        4    -0.61346   16.57275    9.57326   14.68474
     181      444        4    -0.61346   25.37288   11.48246    8.09341
     182      444        4    -0.61346   23.09369   11.48369    8.09026
     183      444        4    -0.61346    6.88145    5.80470    4.09357
     184      444        4    -0.61346   23.09001    5.80160    4.09673
     185      444        5    -1.27282   24.21958   13.97492    9.85292
     186      444        5    -1.27282    5.73561    3.30801    2.33061
     187      444        4    -0.61346   10.02116    7.09932    6.93736
     188      444        4    -0.61346   23.58170    4.26331   10.93314
     189      444        4    -0.61346   11.15782    8.25998    2.49776
     190      444        4    -0.61346   15.47448   16.43687   13.54043
     191      444        4    -0.61346   12.73776    4.21378    4.36032
     192      444        4    -0.61346   21.98140   14.52374    0.36108
     193      444        4    -0.61346   11.15826    5.12593    6.93661
     194      444        4    -0.61346   15.47660   18.28182   10.93149
     195      444        4    -0.61346   12.73983    5.52619    2.49896
     196      444        4    -0.61346   21.98281    5.18857   13.54268
     197      444        4    -0.61346   10.02152    8.91879    4.35851
     198      444        4    -0.61346   23.58450   11.75556    0.35957
     199      444        4    -0.61346   11.60888    9.85741    6.95105
     200      444        4    -0.61346   13.88804    9.85622    6.95406
     201      444        4    -0.61346   30.10025   15.53526   10.95075
     202      444        4    -0.61346   13.89114   15.53790   10.94683
     203      444        4    -0.61346   14.34549    8.27628    2.49174
     204      444        4    -0.61346   15.48098    8.93684    4.35460
     205      444        4    -0.61346   28.51572   16.45621   13.54268
     206      444        4    -0.61346   20.40897   11.76668    0.35972
     207      444        4    -0.61346   14.34475    5.12327    6.95226
     208      444        4    -0.61346   15.48066    7.09950    6.95617
     209      444        4    -0.61346   28.51486   18.28704   10.94954
     210      444        4    -0.61346   20.40904    4.26619   10.94668
     211      444        5    -1.27282   12.76209    7.36497    5.19140
     212      444        5    -1.27282   31.24617   18.03192   12.71386
     213      444        1     1.11923   33.47009   21.17543   24.24203
     214      444        1     1.11923   14.98115    6.79862   18.03480
     215      444        1     1.11923   33.46959   19.32414   26.86481
     216      444        1     1.11923   14.98046    8.65287   15.40585
     217      444        1     1.11923   35.07401   18.39654   24.24353
     218      444        1     1.11923   13.37707    9.58413   18.03480
     219      444        1     1.11923   31.86129   18.39242   24.23887
     220      444        1     1.11923   16.58954    9.58337   18.03284
     221      444        1     1.11923   20.40167   13.63608   20.89077
     222      444        1     1.11923   42.09853   22.44842   27.09936
     223      444        1     1.11923   22.00579   12.70834   18.26905
     224      444        1     1.11923   40.49519   23.37976   29.72846
     225      444        1     1.11923   22.00563   10.85722   20.89228
     226      444        1     1.11923   40.49454   25.23400   27.09951
     227      444        1     1.11923   23.61368   13.63977   20.89423
     228      444        1     1.11923   38.88601   22.44920   27.10117
     229      444        2     0.10505   28.68817    8.38091   20.45929
     230      444        2     0.10505   36.15754   23.35324   21.89156
     231      444        2     0.10505   24.27491   19.10083   16.09370
     232      444        2     0.10505   33.51454   22.40057   29.70078
     233      444        2     0.10505   21.58300   15.56843   27.62398
     234      444        2     0.10505   38.29531   16.58355   26.18523
     235      444        2     0.10505   21.58832   20.64892   20.45552
     236      444        2     0.10505   38.30024   19.62538   21.88795
     237      444        2     0.10505   28.69180   11.47107   16.09521
     238      444        2     0.10505   36.16135   17.83286   29.70288
     239      444        2     0.10505   24.27158   10.92513   27.62292
     240      444        2     0.10505   33.51100   24.87397   26.18373
     241      444        2     0.10505   19.78720    8.36872   20.42197
     242      444        2     0.10505   30.80669   23.34994   21.85696
     243      444        2     0.10505   26.89189   20.63747   20.41746
     244      444        2     0.10505   28.67412   19.61685   21.85952
     245      444        2     0.10505   19.78417   11.42863   16.09355
     246      444        2     0.10505   30.80390   17.79456   29.70875
     247      444        2     0.10505   26.89408   15.53111   27.62338
     248      444        2     0.10505   28.67287   16.55330   26.17816
     249      444        2     0.10505   17.13738   12.96539   20.41972
     250      444        2     0.10505   35.63150   15.00644   21.85576
     251      444        2     0.10505   31.32840   12.96471   20.41761
     252      444        2     0.10505   31.33236   15.01785   21.86087
     253      444        2     0.10505   33.88742   11.38365   24.67878
     254      444        2     0.10505   17.17550   12.40717   23.24636
     255      444        2     0.10505   26.78324   20.56105   29.03820
     256      444        2     0.10505   19.31422   14.19958   15.43142
     257      444        2     0.10505   31.20377   21.10727   17.51078
     258      444        2     0.10505   21.96468    7.15865   18.95058
     259      444        2     0.10505   26.78756   23.65165   24.67502
     260      444        2     0.10505   19.30997    8.67456   23.22936
     261      444        2     0.10505   31.20038   12.93147   29.03970
     262      444        2     0.10505   21.96118    9.63199   15.43338
     263      444        2     0.10505   33.89260   16.46401   17.51033
     264      444        2     0.10505   17.18027   15.44889   18.94908
     265      444        2     0.10505   38.33826   19.06710   24.71459
     266      444        2     0.10505   19.84414   17.02605   23.27855
     267      444        2     0.10505   24.14661   19.06735   24.71579
     268      444        2     0.10505   24.14293   17.01438   23.27299
     269      444        2     0.10505   35.69159   20.60401   29.04076
     270      444        2     0.10505   24.67180   14.23796   15.42541
     271      444        2     0.10505   28.58158   16.50126   17.51078
     272      444        2     0.10505   26.79924   15.47689   18.95013
     273      444        2     0.10505   35.68854   23.66390   24.71233
     274      444        2     0.10505   24.66904    8.68267   23.27735
     275      444        2     0.10505   28.58366   11.39520   24.71700
     276      444        2     0.10505   26.80143   12.41582   23.27494
     277      444        3    -0.05243   38.00538   23.33640   20.77779
     278      444        3    -0.05243   37.01710   22.76777   21.57351
     279      444        3    -0.05243   33.51934   24.52931   30.05223
     280      444        3    -0.05243   33.51471   23.39192   29.25349
     281      444        3    -0.05243   39.21158   16.06669   28.06871
     282      444        3    -0.05243   38.22352   16.63045   27.26937
     283      444        3    -0.05243   39.21491   21.23209   20.77568
     284      444        3    -0.05243   38.22679   20.66324   21.57141
     285      444        3    -0.05243   38.00718   16.77198   30.05433
     286      444        3    -0.05243   37.01879   17.33568   29.25515
     287      444        3    -0.05243   33.51789   25.92550   28.06750
     288      444        3    -0.05243   33.51276   24.78808   27.26786
     289      444        3     0.71472   17.55076    7.17741   19.47264
     290      444        3    -0.12707   27.85786   22.56013   20.33426
     291      444        3    -0.05243   28.95939   23.32554   20.73792
     292      444        3    -0.05243   29.94785   22.76100   21.53861
     293      444        3    -0.05243   27.75349   21.22020   20.73897
     294      444        3    -0.05243   28.74088   20.65478   21.53801
     295      444        3    -0.12707   29.84555   21.42135   21.94362
     296      444        3     0.71472   30.90630   20.81081   22.80313
     297      444        3     0.71472   17.55019   10.13608   15.28368
     298      444        3    -0.12707   27.85717   16.09225   29.46563
     299      444        3    -0.05243   28.95798   16.72950   30.05479
     300      444        3    -0.05243   29.94621   17.29779   29.25786
     301      444        3    -0.05243   27.75464   16.02908   28.06735
     302      444        3    -0.05243   28.74222   16.59663   27.26997
     303      444        3    -0.12707   29.84542   17.23515   27.85958
     304      444        3     0.71472   30.90609   17.84447   26.99886
     305      444        3     0.71472   14.98875   11.62034   19.47204
     306      444        3    -0.12707   33.47657   12.84409   20.33351
     307      444        3    -0.05243   34.68999   13.41773   20.73762
     308      444        3    -0.05243   34.69294   14.55537   21.53786
     309      444        3    -0.05243   32.26306   13.42122   20.73897
     310      444        3    -0.05243   32.26531   14.55861   21.53861
     311      444        3    -0.12707   33.48065   15.13381   21.94392
     312      444        3     0.71472   33.48038   16.35690   22.80434
     313      444        3     0.71472   12.42700    7.18341   19.49551
     314      444        3    -0.12707   39.10922   22.57149   20.36992
     315      444        3    -0.12707   37.11995   21.42659   21.97491
     316      444        3     0.71472   36.05400   20.81277   22.82344
     317      444        3     0.71472   15.00822    5.68816   15.28278
     318      444        3    -0.12707   33.51728   25.80442   29.46578
     319      444        3    -0.12707   33.50994   23.51293   27.85492
     320      444        3     0.71472   33.49620   22.29115   26.99450
     321      444        3     0.71472   12.42643   10.15905   15.28368
     322      444        3    -0.12707   39.10848   16.12997   29.46698
     323      444        3    -0.12707   37.11925   17.26790   27.85672
     324      444        3     0.71472   36.05361   17.86565   26.99615
     325      444        3    -0.05243   16.26083   10.80048   24.35863
     326      444        3    -0.05243   17.24894   11.36931   23.56290
     327      444        3    -0.05243   17.46835   15.26046   15.07982
     328      444        3    -0.05243   18.45669   14.69668   15.87901
     329      444        3    -0.05243   21.95773    6.10706   17.06666
     330      444        3    -0.05243   21.96261    7.24434   17.86584
     331      444        3    -0.05243   17.47036    8.69617   24.35652
     332      444        3    -0.05243   18.45874    9.26485   23.56095
     333      444        3    -0.05243   21.95597    7.50304   15.08133
     334      444        3    -0.05243   21.96109    8.64069   15.88082
     335      444        3    -0.05243   16.26393   15.96575   17.06545
     336      444        3    -0.05243   17.25206   15.40196   17.86494
     337      444        3     0.71472   40.48688   20.41219   25.66227
     338      444        3    -0.12707   21.99913   19.18842   24.80095
     339      444        3    -0.05243   20.78571   18.61480   24.39684
     340      444        3    -0.05243   20.78278   17.47714   23.59660
     341      444        3    -0.05243   23.21261   18.61125   24.39549
     342      444        3    -0.05243   23.21037   17.47385   23.59585
     343      444        3    -0.12707   21.99508   16.89870   23.19054
     344      444        3     0.71472   21.99531   15.67564   22.32997
     345      444        3     0.71472   37.92554   21.89652   29.85063
     346      444        3    -0.12707   27.61848   15.94025   15.66853
     347      444        3    -0.05243   26.51771   15.30299   15.07937
     348      444        3    -0.05243   25.52946   14.73472   15.87630
     349      444        3    -0.05243   27.72114   16.00333   17.06696
     350      444        3    -0.05243   26.73346   15.43575   17.86419
     351      444        3    -0.12707   25.63027   14.79725   17.27458
     352      444        3     0.71472   24.56958   14.18802   18.13530
     353      444        3     0.71472   37.92485   24.85524   25.66167
     354      444        3    -0.12707   27.61775    9.47249   24.80005
     355      444        3    -0.05243   26.51567    8.70675   24.39549
     356      444        3    -0.05243   25.52777    9.27156   23.59555
     357      444        3    -0.05243   27.72208   10.81247   24.39549
     358      444        3    -0.05243   26.73469   11.37784   23.59630
     359      444        3    -0.12707   25.63008   10.61126   23.19069
     360      444        3     0.71472   24.56930   11.22175   22.33102
     361      444        3     0.71472   43.04872   24.84916   25.63880
     362      444        3    -0.12707   16.36651    9.46108   24.76439
     363      444        3    -0.12707   18.35578   10.60597   23.15940
     364      444        3     0.71472   19.42174   11.21980   22.31086
     365      444        3     0.71472   43.04924   21.87348   29.85063
     366      444        3    -0.12707   16.36712   15.90247   15.66733
     367      444        3    -0.12707   18.35635   14.76458   17.27759
     368      444        3     0.71472   19.42189   14.16677   18.13801
     369      444        3     0.71472   40.46753   26.34448   29.85153
     370      444        3    -0.12707   21.95841    6.22814   15.66838
     371      444        3    -0.12707   21.96570    8.51963   17.27924
     372      444        3     0.71472   21.97954    9.74147   18.13981
     373      444        4    -0.61346   35.07051   21.56029   23.15278
     374      444        4    -0.61346   30.75208    8.40433   19.15775
     375      444        4    -0.61346   33.48818   21.15971   27.58937
     376      444        4    -0.61346   24.24587   21.49765   16.54655
     377      444        4    -0.61346   36.20721   17.76752   25.73088
     378      444        4    -0.61346   22.64360   14.93023   29.72891
     379      444        4    -0.61346   36.20760   19.58690   23.15203
     380      444        4    -0.61346   22.64642   22.42252   19.15519
     381      444        4    -0.61346   35.07086   18.42623   27.59163
     382      444        4    -0.61346   30.75329   10.24877   16.54746
     383      444        4    -0.61346   33.49049   22.47222   25.72832
     384      444        4    -0.61346   24.24735   12.16248   29.72816