Created on Tue Feb 06 14:43:28 2018 

        1008 atoms
        2124 bonds
       10224 angles
        3168 dihedrals
        2160 impropers

           3 atom types
           5 bond types
           8 angle types
           4 dihedral types
           1 improper types
           0.000000  25.259999 xlo xhi
           0.000000  26.086294 ylo yhi
           0.000000  26.475536 zlo zhi
           2.913599   2.820865  12.290009 xy xz yz

Masses

    1   137.327000000 # Ba6+2
    2    12.010700000 # C_R
    3    15.999400000 # O_R

Bond Coeffs

    1       26.146151        4.554000  # Ba6+2 Ba6+2
    2       99.935453        2.751925  # Ba6+2 O_R
    3      646.680887        1.311940  # C_R O_R
    4      391.669513        1.458000  # C_R C_R
    5      523.759376        1.323387  # C_R C_R

Angle Coeffs

    1        2.929909               1               4 # Ba6+2 Ba6+2 O_R
    2       11.804980               1               4 # O_R Ba6+2 O_R
    3        1.337205               1               4 # Ba6+2 Ba6+2 Ba6+2
    4      217.450257              -1               3 # O_R C_R O_R
    5      137.761490              -1               3 # O_R C_R C_R
    6      176.874468              -1               3 # C_R C_R O_R
    7        9.457399              -1               3 # Ba6+2 O_R Ba6+2
    8       27.455638              -1               3 # Ba6+2 O_R C_R

Dihedral Coeffs

    1        1.497136              -1               2 # C_R C_R O_R Ba6+2
    2        0.555556              -1               2 # O_R C_R C_R O_R
    3        2.165197              -1               2 # O_R C_R C_R O_R
    4        1.122852              -1               2 # O_R C_R O_R Ba6+2

Improper Coeffs

    1        2.000000        1.000000       -1.000000        0.000000               0 # C_R C_R O_R O_R

Pair Coeffs

    1        0.364000        3.298998 # Ba6+2 Ba6+2
    2        0.105000        3.430851 # C_R C_R
    3        0.060000        3.118146 # O_R O_R

Atoms

       1      444        1     1.62476    5.67799    9.29344    1.75640
       2      444        1     1.66677    5.72454    4.91935    3.82886
       3      444        1     1.62472    2.54919    3.49986    7.06974
       4      444        1     1.66664    2.50173    7.87253    4.99724
       5      444        2     0.58438    1.54781    2.11653    2.88830
       6      444        2     0.57798    2.59130    3.14949    3.38259
       7      444        2     0.56296    1.76553    7.02151    1.64115
       8      444        2     0.58394    3.32673    6.98481    1.66376
       9      444        2     0.58374    6.67832   10.67435    5.93811
      10      444        2     0.57885    5.63456    9.64169    5.44411
      11      444        2     0.56327    6.46121    5.77075    7.18463
      12      444        2     0.58398    4.89999    5.80777    7.16294
      13      444        3    -0.68475    6.67487    2.51819    2.69877
      14      444        3    -0.70654    2.92346    9.61144    2.75344
      15      444        3    -0.71598    2.18786    4.00751    4.22978
      16      444        3    -0.68670    3.77715    3.04516    2.93886
      17      444        3    -0.75355    1.14878    6.84192    2.74844
      18      444        3    -0.64282    1.20409    7.32000    0.55334
      19      444        3    -0.75669    3.89792    6.77105    2.78726
      20      444        3    -0.65364    3.92821    7.26742    0.59063
      21      444        3    -0.68417    1.55181   10.27535    6.12594
      22      444        3    -0.70661    5.30324    3.17951    6.07335
      23      444        3    -0.71652    6.03764    8.78372    4.59663
      24      444        3    -0.68685    4.44892    9.74627    5.88823
      25      444        3    -0.75370    7.07758    5.94998    6.07705
      26      444        3    -0.64302    7.02294    5.47217    8.27226
      27      444        3    -0.75695    4.32800    6.01869    6.03925
      28      444        3    -0.65351    4.29909    5.52820    8.23714
      29      444        1     1.62476    6.61827   13.39011   10.58158
      30      444        1     1.66677    6.66483    9.01602   12.65404
      31      444        1     1.62472    3.48948    7.59653   15.89492
      32      444        1     1.66664    3.44202   11.96920   13.82242
      33      444        2     0.58438    2.48809    6.21320   11.71348
      34      444        2     0.57798    3.53159    7.24616   12.20776
      35      444        2     0.56296    2.70582   11.11818   10.46633
      36      444        2     0.58394    4.26702   11.08148   10.48894
      37      444        2     0.58374    7.61861   14.77102   14.76329
      38      444        2     0.57885    6.57485   13.73835   14.26929
      39      444        2     0.56327    7.40150    9.86742   16.00981
      40      444        2     0.58398    5.84028    9.90444   15.98812
      41      444        3    -0.68475    7.61516    6.61486   11.52395
      42      444        3    -0.70654    3.86375   13.70811   11.57862
      43      444        3    -0.71598    3.12815    8.10418   13.05496
      44      444        3    -0.68670    4.71744    7.14182   11.76403
      45      444        3    -0.75355    2.08907   10.93859   11.57362
      46      444        3    -0.64282    2.14437   11.41667    9.37852
      47      444        3    -0.75669    4.83821   10.86772   11.61243
      48      444        3    -0.65364    4.86850   11.36409    9.41581
      49      444        3    -0.68417    2.49209   14.37202   14.95112
      50      444        3    -0.70661    6.24353    7.27618   14.89853
      51      444        3    -0.71652    6.97793   12.88039   13.42181
      52      444        3    -0.68685    5.38921   13.84294   14.71341
      53      444        3    -0.75370    8.01787   10.04665   14.90223
      54      444        3    -0.64302    7.96323    9.56884   17.09744
      55      444        3    -0.75695    5.26829   10.11536   14.86443
      56      444        3    -0.65351    5.23938    9.62487   17.06232
      57      444        1     1.62476    7.55856   17.48678   19.40676
      58      444        1     1.66677    7.60512   13.11269   21.47921
      59      444        1     1.62472    4.42977   11.69320   24.72010
      60      444        1     1.66664    4.38231   16.06587   22.64760
      61      444        2     0.58438    3.42838   10.30987   20.53866
      62      444        2     0.57798    4.47188   11.34283   21.03294
      63      444        2     0.56296    3.64611   15.21485   19.29151
      64      444        2     0.58394    5.20731   15.17815   19.31412
      65      444        2     0.58374    8.55890   18.86769   23.58847
      66      444        2     0.57885    7.51514   17.83502   23.09447
      67      444        2     0.56327    8.34178   13.96409   24.83499
      68      444        2     0.58398    6.78057   14.00111   24.81330
      69      444        3    -0.68475    8.55545   10.71153   20.34913
      70      444        3    -0.70654    4.80404   17.80478   20.40380
      71      444        3    -0.71598    4.06844   12.20085   21.88014
      72      444        3    -0.68670    5.65773   11.23849   20.58921
      73      444        3    -0.75355    3.02935   15.03526   20.39880
      74      444        3    -0.64282    3.08466   15.51334   18.20370
      75      444        3    -0.75669    5.77849   14.96439   20.43761
      76      444        3    -0.65364    5.80878   15.46076   18.24099
      77      444        3    -0.68417    3.43238   18.46869   23.77630
      78      444        3    -0.70661    7.18382   11.37285   23.72370
      79      444        3    -0.71652    7.91821   16.97706   22.24699
      80      444        3    -0.68685    6.32950   17.93961   23.53859
      81      444        3    -0.75370    8.95816   14.14332   23.72741
      82      444        3    -0.64302    8.90352   13.66551   25.92262
      83      444        3    -0.75695    6.20858   14.21203   23.68960
      84      444        3    -0.65351    6.17967   13.72154   25.88750
      85      444        1     1.62476    6.64919   17.98887    1.75640
      86      444        1     1.66677    6.69574   13.61479    3.82886
      87      444        1     1.62472    3.52039   12.19529    7.06974
      88      444        1     1.66664    3.47293   16.56796    4.99724
      89      444        2     0.58438    2.51901   10.81196    2.88830
      90      444        2     0.57798    3.56250   11.84492    3.38259
      91      444        2     0.56296    2.73673   15.71694    1.64115
      92      444        2     0.58394    4.29793   15.68024    1.66376
      93      444        2     0.58374    7.64952   19.36979    5.93811
      94      444        2     0.57885    6.60576   18.33712    5.44411
      95      444        2     0.56327    7.43241   14.46618    7.18463
      96      444        2     0.58398    5.87119   14.50320    7.16294
      97      444        3    -0.68475    7.64607   11.21362    2.69877
      98      444        3    -0.70654    3.89466   18.30687    2.75344
      99      444        3    -0.71598    3.15906   12.70294    4.22978
     100      444        3    -0.68670    4.74835   11.74059    2.93886
     101      444        3    -0.75355    2.11998   15.53735    2.74844
     102      444        3    -0.64282    2.17529   16.01543    0.55334
     103      444        3    -0.75669    4.86912   15.46648    2.78726
     104      444        3    -0.65364    4.89941   15.96285    0.59063
     105      444        3    -0.68417    2.52301   18.97078    6.12594
     106      444        3    -0.70661    6.27444   11.87495    6.07335
     107      444        3    -0.71652    7.00884   17.47915    4.59663
     108      444        3    -0.68685    5.42012   18.44170    5.88823
     109      444        3    -0.75370    8.04878   14.64541    6.07705
     110      444        3    -0.64302    7.99414   14.16760    8.27226
     111      444        3    -0.75695    5.29920   14.71412    6.03925
     112      444        3    -0.65351    5.27029   14.22363    8.23714
     113      444        1     1.62476    7.58947   22.08554   10.58158
     114      444        1     1.66677    7.63603   17.71146   12.65404
     115      444        1     1.62472    4.46068   16.29196   15.89492
     116      444        1     1.66664    4.41322   20.66463   13.82242
     117      444        2     0.58438    3.45929   14.90863   11.71348
     118      444        2     0.57798    4.50279   15.94159   12.20776
     119      444        2     0.56296    3.67702   19.81361   10.46633
     120      444        2     0.58394    5.23822   19.77691   10.48894
     121      444        2     0.58374    8.58981   23.46645   14.76329
     122      444        2     0.57885    7.54605   22.43379   14.26929
     123      444        2     0.56327    8.37269   18.56285   16.00981
     124      444        2     0.58398    6.81148   18.59987   15.98812
     125      444        3    -0.68475    8.58636   15.31029   11.52395
     126      444        3    -0.70654    4.83495   22.40354   11.57862
     127      444        3    -0.71598    4.09935   16.79961   13.05496
     128      444        3    -0.68670    5.68864   15.83726   11.76403
     129      444        3    -0.75355    3.06027   19.63402   11.57362
     130      444        3    -0.64282    3.11557   20.11210    9.37852
     131      444        3    -0.75669    5.80940   19.56315   11.61243
     132      444        3    -0.65364    5.83969   20.05952    9.41581
     133      444        3    -0.68417    3.46329   23.06745   14.95112
     134      444        3    -0.70661    7.21473   15.97162   14.89853
     135      444        3    -0.71652    7.94913   21.57582   13.42181
     136      444        3    -0.68685    6.36041   22.53837   14.71341
     137      444        3    -0.75370    8.98907   18.74208   14.90223
     138      444        3    -0.64302    8.93443   18.26427   17.09744
     139      444        3    -0.75695    6.23949   18.81079   14.86443
     140      444        3    -0.65351    6.21058   18.32030   17.06232
     141      444        1     1.62476    8.52976   26.18221   19.40676
     142      444        1     1.66677    8.57632   21.80813   21.47921
     143      444        1     1.62472    5.40097   20.38863   24.72010
     144      444        1     1.66664    5.35351   24.76130   22.64760
     145      444        2     0.58438    4.39958   19.00530   20.53866
     146      444        2     0.57798    5.44308   20.03826   21.03294
     147      444        2     0.56296    4.61731   23.91028   19.29151
     148      444        2     0.58394    6.17851   23.87358   19.31412
     149      444        2     0.58374    9.53010   27.56312   23.58847
     150      444        2     0.57885    8.48634   26.53046   23.09447
     151      444        2     0.56327    9.31298   22.65952   24.83499
     152      444        2     0.58398    7.75177   22.69654   24.81330
     153      444        3    -0.68475    9.52664   19.40696   20.34913
     154      444        3    -0.70654    5.77524   26.50021   20.40380
     155      444        3    -0.71598    5.03964   20.89628   21.88014
     156      444        3    -0.68670    6.62893   19.93393   20.58921
     157      444        3    -0.75355    4.00055   23.73069   20.39880
     158      444        3    -0.64282    4.05586   24.20877   18.20370
     159      444        3    -0.75669    6.74969   23.65982   20.43761
     160      444        3    -0.65364    6.77998   24.15619   18.24099
     161      444        3    -0.68417    4.40358   27.16412   23.77630
     162      444        3    -0.70661    8.15502   20.06829   23.72370
     163      444        3    -0.71652    8.88941   25.67249   22.24699
     164      444        3    -0.68685    7.30070   26.63504   23.53859
     165      444        3    -0.75370    9.92936   22.83875   23.72741
     166      444        3    -0.64302    9.87472   22.36094   25.92262
     167      444        3    -0.75695    7.17978   22.90746   23.68960
     168      444        3    -0.65351    7.15087   22.41697   25.88750
     169      444        1     1.62476    7.62039   26.68431    1.75640
     170      444        1     1.66677    7.66694   22.31022    3.82886
     171      444        1     1.62472    4.49159   20.89072    7.06974
     172      444        1     1.66664    4.44413   25.26339    4.99724
     173      444        2     0.58438    3.49021   19.50739    2.88830
     174      444        2     0.57798    4.53370   20.54035    3.38259
     175      444        2     0.56296    3.70793   24.41237    1.64115
     176      444        2     0.58394    5.26913   24.37567    1.66376
     177      444        2     0.58374    8.62072   28.06522    5.93811
     178      444        2     0.57885    7.57696   27.03255    5.44411
     179      444        2     0.56327    8.40361   23.16161    7.18463
     180      444        2     0.58398    6.84239   23.19864    7.16294
     181      444        3    -0.68475    8.61727   19.90905    2.69877
     182      444        3    -0.70654    4.86586   27.00230    2.75344
     183      444        3    -0.71598    4.13026   21.39837    4.22978
     184      444        3    -0.68670    5.71955   20.43602    2.93886
     185      444        3    -0.75355    3.09118   24.23278    2.74844
     186      444        3    -0.64282    3.14649   24.71087    0.55334
     187      444        3    -0.75669    5.84032   24.16191    2.78726
     188      444        3    -0.65364    5.87061   24.65829    0.59063
     189      444        3    -0.68417    3.49421   27.66621    6.12594
     190      444        3    -0.70661    7.24564   20.57038    6.07335
     191      444        3    -0.71652    7.98004   26.17458    4.59663
     192      444        3    -0.68685    6.39132   27.13713    5.88823
     193      444        3    -0.75370    9.01998   23.34084    6.07705
     194      444        3    -0.64302    8.96534   22.86304    8.27226
     195      444        3    -0.75695    6.27040   23.40955    6.03925
     196      444        3    -0.65351    6.24149   22.91906    8.23714
     197      444        1     1.62476    8.56067   30.78098   10.58158
     198      444        1     1.66677    8.60723   26.40689   12.65404
     199      444        1     1.62472    5.43188   24.98739   15.89492
     200      444        1     1.66664    5.38442   29.36006   13.82242
     201      444        2     0.58438    4.43049   23.60406   11.71348
     202      444        2     0.57798    5.47399   24.63702   12.20776
     203      444        2     0.56296    4.64822   28.50904   10.46633
     204      444        2     0.58394    6.20942   28.47234   10.48894
     205      444        2     0.58374    9.56101   32.16189   14.76329
     206      444        2     0.57885    8.51725   31.12922   14.26929
     207      444        2     0.56327    9.34389   27.25828   16.00981
     208      444        2     0.58398    7.78268   27.29531   15.98812
     209      444        3    -0.68475    9.55756   24.00572   11.52395
     210      444        3    -0.70654    5.80615   31.09897   11.57862
     211      444        3    -0.71598    5.07055   25.49504   13.05496
     212      444        3    -0.68670    6.65984   24.53269   11.76403
     213      444        3    -0.75355    4.03147   28.32945   11.57362
     214      444        3    -0.64282    4.08677   28.80754    9.37852
     215      444        3    -0.75669    6.78060   28.25858   11.61243
     216      444        3    -0.65364    6.81089   28.75495    9.41581
     217      444        3    -0.68417    4.43449   31.76288   14.95112
     218      444        3    -0.70661    8.18593   24.66705   14.89853
     219      444        3    -0.71652    8.92033   30.27125   13.42181
     220      444        3    -0.68685    7.33161   31.23380   14.71341
     221      444        3    -0.75370    9.96027   27.43751   14.90223
     222      444        3    -0.64302    9.90563   26.95971   17.09744
     223      444        3    -0.75695    7.21069   27.50622   14.86443
     224      444        3    -0.65351    7.18178   27.01573   17.06232
     225      444        1     1.62476    9.50096   34.87764   19.40676
     226      444        1     1.66677    9.54752   30.50356   21.47921
     227      444        1     1.62472    6.37217   29.08406   24.72010
     228      444        1     1.66664    6.32471   33.45673   22.64760
     229      444        2     0.58438    5.37078   27.70073   20.53866
     230      444        2     0.57798    6.41428   28.73369   21.03294
     231      444        2     0.56296    5.58851   32.60571   19.29151
     232      444        2     0.58394    7.14971   32.56901   19.31412
     233      444        2     0.58374   10.50130   36.25856   23.58847
     234      444        2     0.57885    9.45754   35.22589   23.09447
     235      444        2     0.56327   10.28418   31.35495   24.83499
     236      444        2     0.58398    8.72297   31.39198   24.81330
     237      444        3    -0.68475   10.49784   28.10239   20.34913
     238      444        3    -0.70654    6.74644   35.19564   20.40380
     239      444        3    -0.71598    6.01084   29.59171   21.88014
     240      444        3    -0.68670    7.60013   28.62936   20.58921
     241      444        3    -0.75355    4.97175   32.42612   20.39880
     242      444        3    -0.64282    5.02706   32.90421   18.20370
     243      444        3    -0.75669    7.72089   32.35525   20.43761
     244      444        3    -0.65364    7.75118   32.85162   18.24099
     245      444        3    -0.68417    5.37478   35.85955   23.77630
     246      444        3    -0.70661    9.12622   28.76372   23.72370
     247      444        3    -0.71652    9.86061   34.36792   22.24699
     248      444        3    -0.68685    8.27190   35.33047   23.53859
     249      444        3    -0.75370   10.90056   31.53418   23.72741
     250      444        3    -0.64302   10.84592   31.05637   25.92262
     251      444        3    -0.75695    8.15098   31.60289   23.68960
     252      444        3    -0.65351    8.12207   31.11240   25.88750
     253      444        1     1.62476   11.99299    9.29344    1.75640
     254      444        1     1.66677   12.03954    4.91935    3.82886
     255      444        1     1.62472    8.86419    3.49986    7.06974
     256      444        1     1.66664    8.81673    7.87253    4.99724
     257      444        2     0.58438    7.86281    2.11653    2.88830
     258      444        2     0.57798    8.90630    3.14949    3.38259
     259      444        2     0.56296    8.08053    7.02151    1.64115
     260      444        2     0.58394    9.64173    6.98481    1.66376
     261      444        2     0.58374   12.99332   10.67435    5.93811
     262      444        2     0.57885   11.94956    9.64169    5.44411
     263      444        2     0.56327   12.77621    5.77075    7.18463
     264      444        2     0.58398   11.21499    5.80777    7.16294
     265      444        3    -0.68475   12.98987    2.51819    2.69877
     266      444        3    -0.70654    9.23846    9.61144    2.75344
     267      444        3    -0.71598    8.50286    4.00751    4.22978
     268      444        3    -0.68670   10.09215    3.04516    2.93886
     269      444        3    -0.75355    7.46378    6.84192    2.74844
     270      444        3    -0.64282    7.51909    7.32000    0.55334
     271      444        3    -0.75669   10.21292    6.77105    2.78726
     272      444        3    -0.65364   10.24321    7.26742    0.59063
     273      444        3    -0.68417    7.86681   10.27535    6.12594
     274      444        3    -0.70661   11.61824    3.17951    6.07335
     275      444        3    -0.71652   12.35264    8.78372    4.59663
     276      444        3    -0.68685   10.76392    9.74627    5.88823
     277      444        3    -0.75370   13.39258    5.94998    6.07705
     278      444        3    -0.64302   13.33794    5.47217    8.27226
     279      444        3    -0.75695   10.64300    6.01869    6.03925
     280      444        3    -0.65351   10.61409    5.52820    8.23714
     281      444        1     1.62476   12.93327   13.39011   10.58158
     282      444        1     1.66677   12.97983    9.01602   12.65404
     283      444        1     1.62472    9.80448    7.59653   15.89492
     284      444        1     1.66664    9.75702   11.96920   13.82242
     285      444        2     0.58438    8.80309    6.21320   11.71348
     286      444        2     0.57798    9.84659    7.24616   12.20776
     287      444        2     0.56296    9.02082   11.11818   10.46633
     288      444        2     0.58394   10.58202   11.08148   10.48894
     289      444        2     0.58374   13.93361   14.77102   14.76329
     290      444        2     0.57885   12.88985   13.73835   14.26929
     291      444        2     0.56327   13.71649    9.86742   16.00981
     292      444        2     0.58398   12.15528    9.90444   15.98812
     293      444        3    -0.68475   13.93016    6.61486   11.52395
     294      444        3    -0.70654   10.17875   13.70811   11.57862
     295      444        3    -0.71598    9.44315    8.10418   13.05496
     296      444        3    -0.68670   11.03244    7.14182   11.76403
     297      444        3    -0.75355    8.40407   10.93859   11.57362
     298      444        3    -0.64282    8.45937   11.41667    9.37852
     299      444        3    -0.75669   11.15320   10.86772   11.61243
     300      444        3    -0.65364   11.18349   11.36409    9.41581
     301      444        3    -0.68417    8.80709   14.37202   14.95112
     302      444        3    -0.70661   12.55853    7.27618   14.89853
     303      444        3    -0.71652   13.29293   12.88039   13.42181
     304      444        3    -0.68685   11.70421   13.84294   14.71341
     305      444        3    -0.75370   14.33287   10.04665   14.90223
     306      444        3    -0.64302   14.27823    9.56884   17.09744
     307      444        3    -0.75695   11.58329   10.11536   14.86443
     308      444        3    -0.65351   11.55438    9.62487   17.06232
     309      444        1     1.62476   13.87356   17.48678   19.40676
     310      444        1     1.66677   13.92012   13.11269   21.47921
     311      444        1     1.62472   10.74477   11.69320   24.72010
     312      444        1     1.66664   10.69731   16.06587   22.64760
     313      444        2     0.58438    9.74338   10.30987   20.53866
     314      444        2     0.57798   10.78688   11.34283   21.03294
     315      444        2     0.56296    9.96111   15.21485   19.29151
     316      444        2     0.58394   11.52231   15.17815   19.31412
     317      444        2     0.58374   14.87390   18.86769   23.58847
     318      444        2     0.57885   13.83014   17.83502   23.09447
     319      444        2     0.56327   14.65678   13.96409   24.83499
     320      444        2     0.58398   13.09557   14.00111   24.81330
     321      444        3    -0.68475   14.87044   10.71153   20.34913
     322      444        3    -0.70654   11.11904   17.80478   20.40380
     323      444        3    -0.71598   10.38344   12.20085   21.88014
     324      444        3    -0.68670   11.97273   11.23849   20.58921
     325      444        3    -0.75355    9.34435   15.03526   20.39880
     326      444        3    -0.64282    9.39966   15.51334   18.20370
     327      444        3    -0.75669   12.09349   14.96439   20.43761
     328      444        3    -0.65364   12.12378   15.46076   18.24099
     329      444        3    -0.68417    9.74738   18.46869   23.77630
     330      444        3    -0.70661   13.49882   11.37285   23.72370
     331      444        3    -0.71652   14.23321   16.97706   22.24699
     332      444        3    -0.68685   12.64450   17.93961   23.53859
     333      444        3    -0.75370   15.27316   14.14332   23.72741
     334      444        3    -0.64302   15.21852   13.66551   25.92262
     335      444        3    -0.75695   12.52358   14.21203   23.68960
     336      444        3    -0.65351   12.49467   13.72154   25.88750
     337      444        1     1.62476   12.96419   17.98887    1.75640
     338      444        1     1.66677   13.01074   13.61479    3.82886
     339      444        1     1.62472    9.83539   12.19529    7.06974
     340      444        1     1.66664    9.78793   16.56796    4.99724
     341      444        2     0.58438    8.83401   10.81196    2.88830
     342      444        2     0.57798    9.87750   11.84492    3.38259
     343      444        2     0.56296    9.05173   15.71694    1.64115
     344      444        2     0.58394   10.61293   15.68024    1.66376
     345      444        2     0.58374   13.96452   19.36979    5.93811
     346      444        2     0.57885   12.92076   18.33712    5.44411
     347      444        2     0.56327   13.74741   14.46618    7.18463
     348      444        2     0.58398   12.18619   14.50320    7.16294
     349      444        3    -0.68475   13.96107   11.21362    2.69877
     350      444        3    -0.70654   10.20966   18.30687    2.75344
     351      444        3    -0.71598    9.47406   12.70294    4.22978
     352      444        3    -0.68670   11.06335   11.74059    2.93886
     353      444        3    -0.75355    8.43498   15.53735    2.74844
     354      444        3    -0.64282    8.49029   16.01543    0.55334
     355      444        3    -0.75669   11.18412   15.46648    2.78726
     356      444        3    -0.65364   11.21441   15.96285    0.59063
     357      444        3    -0.68417    8.83801   18.97078    6.12594
     358      444        3    -0.70661   12.58944   11.87495    6.07335
     359      444        3    -0.71652   13.32384   17.47915    4.59663
     360      444        3    -0.68685   11.73512   18.44170    5.88823
     361      444        3    -0.75370   14.36378   14.64541    6.07705
     362      444        3    -0.64302   14.30914   14.16760    8.27226
     363      444        3    -0.75695   11.61420   14.71412    6.03925
     364      444        3    -0.65351   11.58529   14.22363    8.23714
     365      444        1     1.62476   13.90447   22.08554   10.58158
     366      444        1     1.66677   13.95103   17.71146   12.65404
     367      444        1     1.62472   10.77568   16.29196   15.89492
     368      444        1     1.66664   10.72822   20.66463   13.82242
     369      444        2     0.58438    9.77429   14.90863   11.71348
     370      444        2     0.57798   10.81779   15.94159   12.20776
     371      444        2     0.56296    9.99202   19.81361   10.46633
     372      444        2     0.58394   11.55322   19.77691   10.48894
     373      444        2     0.58374   14.90481   23.46645   14.76329
     374      444        2     0.57885   13.86105   22.43379   14.26929
     375      444        2     0.56327   14.68769   18.56285   16.00981
     376      444        2     0.58398   13.12648   18.59987   15.98812
     377      444        3    -0.68475   14.90136   15.31029   11.52395
     378      444        3    -0.70654   11.14995   22.40354   11.57862
     379      444        3    -0.71598   10.41435   16.79961   13.05496
     380      444        3    -0.68670   12.00364   15.83726   11.76403
     381      444        3    -0.75355    9.37527   19.63402   11.57362
     382      444        3    -0.64282    9.43057   20.11210    9.37852
     383      444        3    -0.75669   12.12440   19.56315   11.61243
     384      444        3    -0.65364   12.15469   20.05952    9.41581
     385      444        3    -0.68417    9.77829   23.06745   14.95112
     386      444        3    -0.70661   13.52973   15.97162   14.89853
     387      444        3    -0.71652   14.26413   21.57582   13.42181
     388      444        3    -0.68685   12.67541   22.53837   14.71341
     389      444        3    -0.75370   15.30407   18.74208   14.90223