Created on Mon Mar 12 13:43:58 2018 

        1782 atoms
        2160 bonds
        4104 angles
        4104 dihedrals
        2268 impropers

           7 atom types
           9 bond types
          17 angle types
           4 dihedral types
           1 improper types
           0.000000  30.428999 xlo xhi
           0.000000  35.336006 ylo yhi
           0.000000  35.356680 zlo zhi
          15.153065  15.180931  -0.029905 xy xz yz

Masses

    1   112.411000000 # Cd3+2
    2     1.007940000 # H_
    3    12.010700000 # C_R
    4    32.065000000 # S_3+6
    5    14.006700000 # N_R
    6    15.999400000 # O_R
    7    15.999400000 # O_3_z

Bond Coeffs

    1      147.192711        2.045725  # Cd3+2 O_R
    2      184.083565        1.898765  # Cd3+2 O_3_z
    3      152.700732        2.089900  # Cd3+2 N_R
    4      357.440381        1.081418  # H_ C_R
    5      462.655054        1.379256  # C_R C_R
    6      663.718927        1.345073  # C_R N_R
    7      391.669513        1.458000  # C_R C_R
    8      646.680887        1.311940  # C_R O_R
    9      554.219568        1.550135  # S_3+6 O_3_z

Angle Coeffs

    1                      fourier       43.585839        0.343737        0.374972        0.281246 # O_3_z Cd3+2 O_3_z
    2                      fourier       36.005565        0.343737        0.374972        0.281246 # O_R Cd3+2 O_3_z
    3                      fourier       37.638421        0.343737        0.374972        0.281246 # O_3_z Cd3+2 N_R
    4                      fourier       30.023701        0.343737        0.374972        0.281246 # O_R Cd3+2 O_R
    5                      fourier       31.469575        0.343737        0.374972        0.281246 # O_R Cd3+2 N_R
    6              cosine/periodic       76.817955              -1               3 # H_ C_R C_R
    7              cosine/periodic      109.704024              -1               3 # H_ C_R N_R
    8              cosine/periodic      165.695700              -1               3 # C_R C_R N_R
    9              cosine/periodic      117.010657              -1               3 # C_R C_R C_R
   10              cosine/periodic      101.626578              -1               3 # C_R C_R C_R
   11              cosine/periodic      217.450257              -1               3 # O_R C_R O_R
   12              cosine/periodic      137.761490              -1               3 # C_R C_R O_R
   13                      fourier      120.185840        0.343737        0.374972        0.281246 # O_3_z S_3+6 O_3_z
   14              cosine/periodic       33.294741              -1               3 # Cd3+2 N_R C_R
   15              cosine/periodic      132.654363              -1               3 # C_R N_R C_R
   16              cosine/periodic       45.673393              -1               3 # Cd3+2 O_R C_R
   17                      fourier       30.322077        1.898490        2.651251        0.799497 # Cd3+2 O_3_z S_3+6

Dihedral Coeffs

    1        1.497136              -1               2 # H_ C_R C_R H_
    2        0.555556              -1               2 # C_R C_R C_R O_R
    3        2.245703              -1               2 # O_R C_R O_R Cd3+2
    4        0.230489               1               2 # O_3_z S_3+6 O_3_z Cd3+2

Improper Coeffs

    1        2.000000        1.000000       -1.000000        0.000000               0 # C_R C_R H_ N_R

Pair Coeffs

    1        0.228000        2.537280 # Cd3+2 Cd3+2
    2        0.044000        2.571134 # H_ H_
    3        0.105000        3.430851 # C_R C_R
    4        0.274000        3.594776 # S_3+6 S_3+6
    5        0.069000        3.260689 # N_R N_R
    6        0.060000        3.118146 # O_R O_R
    7        0.060000        3.118146 # O_3_z O_3_z

Atoms

       1      444        1     1.07396    5.05607    5.30961    3.79999
       2      444        1     1.07403   15.19774    6.45882    7.98562
       3      444        1     1.07473   10.12655    3.79392    6.47076
       4      444        1     1.07475   10.12723    7.97454    5.31490
       5      444        2     0.10093    7.13895    3.03862    4.50016
       6      444        2     0.13938    7.22229    0.58118    4.92331
       7      444        2     0.09929    7.13145    8.73271    7.24846
       8      444        2     0.13855   17.34658   11.19139    6.83421
       9      444        2     0.10042   12.20671    4.50677    8.74477
      10      444        2     0.13977   12.28396    4.92016   11.20444
      11      444        2     0.10092   12.20691    7.25145    3.04230
      12      444        2     0.13878   12.28497    6.83338    0.58527
      13      444        2     0.10118   13.11484    8.72982    7.28561
      14      444        2     0.13935   13.03145   11.18724    6.86239
      15      444        2     0.09924   13.12238    3.03581    4.53746
      16      444        2     0.13846    2.90715    0.57711    4.95148
      17      444        2     0.10049    8.04703    7.26187    3.04087
      18      444        2     0.13966    7.96975    6.84824    0.58125
      19      444        2     0.10095    8.04683    4.51693    8.74334
      20      444        2     0.13892    7.96874    4.93476   11.20043
      21      444        3     0.14902    6.22496    2.45345    4.58604
      22      444        3    -0.14493    6.26474    1.08615    4.82708
      23      444        3     0.15082   16.35799    9.31645    7.17961
      24      444        3    -0.14596   16.39143   10.68433    6.94134
      25      444        3     0.15344   11.29135    4.58566    9.32898
      26      444        3    -0.14743   11.32790    4.82297   10.69699
      27      444        3     0.14996   11.29154    7.17653    2.45773
      28      444        3    -0.14669   11.32823    6.93773    1.08998
      29      444        3     0.14866   14.02883    9.31498    7.19962
      30      444        3    -0.14479   13.98902   10.68231    6.95870
      31      444        3     0.15067    3.89580    2.45203    4.60604
      32      444        3    -0.14585    3.86231    1.08417    4.84442
      33      444        3     0.15339    8.96239    7.18271    2.45670
      34      444        3    -0.14693    8.92584    6.94548    1.08868
      35      444        3     0.14947    8.96219    4.59169    9.32796
      36      444        3    -0.14669    8.92550    4.83057   10.69570
      37      444        3     0.01568    5.06493    0.37862    4.94964
      38      444        3     0.60228   10.11847   10.66830    5.17372
      39      444        3     0.01547   15.18880   11.38986    6.83617
      40      444        3     0.60235   10.13526    1.10017    6.61190
      41      444        3     0.01799   10.12664    4.94036   11.40297
      42      444        3     0.60160    5.06646    5.17341    1.10630
      43      444        3     0.01767   10.12709    6.82812    0.38268
      44      444        3     0.60136   15.18725    6.59485   10.67938
      45      444        4     1.51063   12.66306    5.88358    5.89307
      46      444        4     1.51014    7.59076    5.88485    5.89251
      47      444        5    -0.37125    5.05886    3.12858    4.46629
      48      444        5    -0.37123   15.19492    8.63986    7.31929
      49      444        5    -0.37522   10.12671    4.45994    8.65236
      50      444        5    -0.37569   10.12703    7.30836    3.13332
      51      444        6    -0.58657   11.23962   10.06751    5.26561
      52      444        7    -0.69500   13.52704    6.48685    4.81877
      53      444        6    -0.58656   11.25381    1.70858    6.54380
      54      444        7    -0.69485   13.52526    5.28005    6.96850
      55      444        6    -0.58593    6.18543    5.23061    1.71459
      56      444        7    -0.69559    8.45431    4.80982    5.28996
      57      444        6    -0.58688   16.30769    6.49327   10.07823
      58      444        7    -0.69433    8.45384    6.95968    6.49631
      59      444        6    -0.58669    9.01410    1.70097    6.52025
      60      444        7    -0.69493    6.72678    5.28152    6.96679
      61      444        6    -0.58660    8.99991   10.05989    5.24183
      62      444        7    -0.69470    6.72855    6.48837    4.81710
      63      444        6    -0.58583   14.06830    6.53781   10.07104
      64      444        7    -0.69592   11.79955    6.95866    6.49559
      65      444        6    -0.58703    3.94604    5.27509    1.70743
      66      444        7    -0.69432   11.79994    4.80877    5.28931
      67      444        1     1.07396   10.11638    5.29964   15.58555
      68      444        1     1.07403   20.25805    6.44885   19.77118
      69      444        1     1.07473   15.18686    3.78396   18.25632
      70      444        1     1.07475   15.18754    7.96457   17.10046
      71      444        2     0.10093   12.19926    3.02866   16.28572
      72      444        2     0.13938   12.28260    0.57121   16.70887
      73      444        2     0.09929   12.19176    8.72274   19.03402
      74      444        2     0.13855   22.40689   11.18142   18.61977
      75      444        2     0.10042   17.26702    4.49680   20.53033
      76      444        2     0.13977   17.34427    4.91019   22.99000
      77      444        2     0.10092   17.26722    7.24148   14.82786
      78      444        2     0.13878   17.34528    6.82341   12.37083
      79      444        2     0.10118   18.17515    8.71985   19.07117
      80      444        2     0.13935   18.09176   11.17727   18.64795
      81      444        2     0.09924   18.18269    3.02584   16.32302
      82      444        2     0.13846    7.96746    0.56714   16.73704
      83      444        2     0.10049   13.10734    7.25191   14.82643
      84      444        2     0.13966   13.03006    6.83827   12.36681
      85      444        2     0.10095   13.10714    4.50696   20.52890
      86      444        2     0.13892   13.02905    4.92480   22.98599
      87      444        3     0.14902   11.28527    2.44348   16.37160
      88      444        3    -0.14493   11.32505    1.07618   16.61264
      89      444        3     0.15082   21.41830    9.30648   18.96517
      90      444        3    -0.14596   21.45174   10.67436   18.72690
      91      444        3     0.15344   16.35166    4.57569   21.11454
      92      444        3    -0.14743   16.38821    4.81301   22.48255
      93      444        3     0.14996   16.35185    7.16656   14.24329
      94      444        3    -0.14669   16.38854    6.92776   12.87554
      95      444        3     0.14866   19.08914    9.30502   18.98518
      96      444        3    -0.14479   19.04933   10.67235   18.74426
      97      444        3     0.15067    8.95611    2.44206   16.39160
      98      444        3    -0.14585    8.92262    1.07420   16.62998
      99      444        3     0.15339   14.02270    7.17274   14.24226
     100      444        3    -0.14693   13.98615    6.93551   12.87424
     101      444        3     0.14947   14.02250    4.58172   21.11352
     102      444        3    -0.14669   13.98581    4.82060   22.48126
     103      444        3     0.01568   10.12524    0.36865   16.73520
     104      444        3     0.60228   15.17878   10.65833   16.95928
     105      444        3     0.01547   20.24911   11.37989   18.62173
     106      444        3     0.60235   15.19557    1.09020   18.39746
     107      444        3     0.01799   15.18695    4.93040   23.18853
     108      444        3     0.60160   10.12677    5.16344   12.89186
     109      444        3     0.01767   15.18740    6.81816   12.16824
     110      444        3     0.60136   20.24756    6.58489   22.46494
     111      444        4     1.51063   17.72337    5.87362   17.67863
     112      444        4     1.51014   12.65107    5.87488   17.67807
     113      444        5    -0.37125   10.11917    3.11861   16.25185
     114      444        5    -0.37123   20.25523    8.62989   19.10485
     115      444        5    -0.37522   15.18702    4.44997   20.43792
     116      444        5    -0.37569   15.18734    7.29839   14.91888
     117      444        6    -0.58657   16.29993   10.05754   17.05117
     118      444        7    -0.69500   18.58735    6.47689   16.60433
     119      444        6    -0.58656   16.31412    1.69861   18.32936
     120      444        7    -0.69485   18.58557    5.27009   18.75406
     121      444        6    -0.58593   11.24574    5.22064   13.50015
     122      444        7    -0.69559   13.51462    4.79985   17.07552
     123      444        6    -0.58688   21.36800    6.48330   21.86379
     124      444        7    -0.69433   13.51415    6.94971   18.28187
     125      444        6    -0.58669   14.07441    1.69100   18.30581
     126      444        7    -0.69493   11.78709    5.27155   18.75235
     127      444        6    -0.58660   14.06022   10.04992   17.02739
     128      444        7    -0.69470   11.78886    6.47841   16.60266
     129      444        6    -0.58583   19.12861    6.52784   21.85660
     130      444        7    -0.69592   16.85986    6.94869   18.28115
     131      444        6    -0.58703    9.00635    5.26512   13.49299
     132      444        7    -0.69432   16.86025    4.79880   17.07487
     133      444        1     1.07396   15.17669    5.28968   27.37111
     134      444        1     1.07403   25.31836    6.43888   31.55674
     135      444        1     1.07473   20.24717    3.77399   30.04188
     136      444        1     1.07475   20.24785    7.95460   28.88602
     137      444        2     0.10093   17.25957    3.01869   28.07128
     138      444        2     0.13938   17.34291    0.56124   28.49443
     139      444        2     0.09929   17.25207    8.71277   30.81958
     140      444        2     0.13855   27.46720   11.17145   30.40533
     141      444        2     0.10042   22.32733    4.48683   32.31589
     142      444        2     0.13977   22.40458    4.90022   34.77556
     143      444        2     0.10092   22.32753    7.23151   26.61342
     144      444        2     0.13878   22.40559    6.81345   24.15639
     145      444        2     0.10118   23.23546    8.70988   30.85673
     146      444        2     0.13935   23.15207   11.16730   30.43351
     147      444        2     0.09924   23.24300    3.01588   28.10858
     148      444        2     0.13846   13.02777    0.55718   28.52260
     149      444        2     0.10049   18.16765    7.24194   26.61199
     150      444        2     0.13966   18.09037    6.82830   24.15237
     151      444        2     0.10095   18.16745    4.49700   32.31446
     152      444        2     0.13892   18.08936    4.91483   34.77155
     153      444        3     0.14902   16.34558    2.43351   28.15716
     154      444        3    -0.14493   16.38536    1.06621   28.39820
     155      444        3     0.15082   26.47861    9.29651   30.75073
     156      444        3    -0.14596   26.51205   10.66439   30.51246
     157      444        3     0.15344   21.41197    4.56572   32.90010
     158      444        3    -0.14743   21.44852    4.80304   34.26811
     159      444        3     0.14996   21.41216    7.15659   26.02885
     160      444        3    -0.14669   21.44885    6.91779   24.66110
     161      444        3     0.14866   24.14945    9.29505   30.77074
     162      444        3    -0.14479   24.10964   10.66238   30.52982
     163      444        3     0.15067   14.01642    2.43209   28.17716
     164      444        3    -0.14585   13.98293    1.06423   28.41554
     165      444        3     0.15339   19.08301    7.16277   26.02782
     166      444        3    -0.14693   19.04647    6.92554   24.65980
     167      444        3     0.14947   19.08281    4.57176   32.89908
     168      444        3    -0.14669   19.04612    4.81064   34.26682
     169      444        3     0.01568   15.18555    0.35868   28.52076
     170      444        3     0.60228   20.23909   10.64836   28.74484
     171      444        3     0.01547   25.30942   11.36992   30.40729
     172      444        3     0.60235   20.25588    1.08023   30.18302
     173      444        3     0.01799   20.24726    4.92043   34.97409
     174      444        3     0.60160   15.18708    5.15347   24.67742
     175      444        3     0.01767   20.24771    6.80819   23.95380
     176      444        3     0.60136   25.30787    6.57492   34.25050
     177      444        4     1.51063   22.78368    5.86365   29.46419
     178      444        4     1.51014   17.71138    5.86491   29.46363
     179      444        5    -0.37125   15.17948    3.10865   28.03741
     180      444        5    -0.37123   25.31554    8.61992   30.89041
     181      444        5    -0.37522   20.24734    4.44001   32.22348
     182      444        5    -0.37569   20.24765    7.28842   26.70444
     183      444        6    -0.58657   21.36024   10.04757   28.83673
     184      444        7    -0.69500   23.64766    6.46692   28.38989
     185      444        6    -0.58656   21.37443    1.68864   30.11492
     186      444        7    -0.69485   23.64588    5.26012   30.53962
     187      444        6    -0.58593   16.30605    5.21067   25.28571
     188      444        7    -0.69559   18.57493    4.78988   28.86108
     189      444        6    -0.58688   26.42831    6.47333   33.64935
     190      444        7    -0.69433   18.57446    6.93974   30.06743
     191      444        6    -0.58669   19.13472    1.68103   30.09137
     192      444        7    -0.69493   16.84740    5.26158   30.53791
     193      444        6    -0.58660   19.12053   10.03995   28.81295
     194      444        7    -0.69470   16.84917    6.46844   28.38822
     195      444        6    -0.58583   24.18892    6.51787   33.64216
     196      444        7    -0.69592   21.92017    6.93872   30.06671
     197      444        6    -0.58703   14.06666    5.25516   25.27855
     198      444        7    -0.69432   21.92056    4.78884   28.86043
     199      444        1     1.07396   10.10710   17.08828    3.79999
     200      444        1     1.07403   20.24876   18.23748    7.98562
     201      444        1     1.07473   15.17758   15.57259    6.47076
     202      444        1     1.07475   15.17825   19.75321    5.31490
     203      444        2     0.10093   12.18997   14.81729    4.50016
     204      444        2     0.13938   12.27331   12.35985    4.92331
     205      444        2     0.09929   12.18247   20.51138    7.24846
     206      444        2     0.13855   22.39761   22.97006    6.83421
     207      444        2     0.10042   17.25773   16.28544    8.74477
     208      444        2     0.13977   17.33498   16.69882   11.20444
     209      444        2     0.10092   17.25793   19.03012    3.04230
     210      444        2     0.13878   17.33599   18.61205    0.58527
     211      444        2     0.10118   18.16586   20.50849    7.28561
     212      444        2     0.13935   18.08247   22.96591    6.86239
     213      444        2     0.09924   18.17340   14.81448    4.53746
     214      444        2     0.13846    7.95817   12.35578    4.95148
     215      444        2     0.10049   13.09805   19.04054    3.04087
     216      444        2     0.13966   13.02077   18.62691    0.58125
     217      444        2     0.10095   13.09785   16.29560    8.74334
     218      444        2     0.13892   13.01976   16.71343   11.20043
     219      444        3     0.14902   11.27598   14.23211    4.58604
     220      444        3    -0.14493   11.31576   12.86482    4.82708
     221      444        3     0.15082   21.40901   21.09512    7.17961
     222      444        3    -0.14596   21.44245   22.46300    6.94134
     223      444        3     0.15344   16.34237   16.36433    9.32898
     224      444        3    -0.14743   16.37892   16.60164   10.69699
     225      444        3     0.14996   16.34256   18.95519    2.45773
     226      444        3    -0.14669   16.37925   18.71640    1.08998
     227      444        3     0.14866   19.07985   21.09365    7.19962
     228      444        3    -0.14479   19.04005   22.46098    6.95870
     229      444        3     0.15067    8.94682   14.23070    4.60604
     230      444        3    -0.14585    8.91333   12.86284    4.84442
     231      444        3     0.15339   14.01341   18.96138    2.45670
     232      444        3    -0.14693   13.97687   18.72415    1.08868
     233      444        3     0.14947   14.01321   16.37036    9.32796
     234      444        3    -0.14669   13.97652   16.60924   10.69570
     235      444        3     0.01568   10.11595   12.15729    4.94964
     236      444        3     0.60228   15.16949   22.44697    5.17372
     237      444        3     0.01547   20.23982   23.16852    6.83617
     238      444        3     0.60235   15.18628   12.87883    6.61190
     239      444        3     0.01799   15.17766   16.71903   11.40297
     240      444        3     0.60160   10.11748   16.95208    1.10630
     241      444        3     0.01767   15.17811   18.60679    0.38268
     242      444        3     0.60136   20.23827   18.37352   10.67938
     243      444        4     1.51063   17.71408   17.66225    5.89307
     244      444        4     1.51014   12.64178   17.66351    5.89251
     245      444        5    -0.37125   10.10988   14.90725    4.46629
     246      444        5    -0.37123   20.24594   20.41853    7.31929
     247      444        5    -0.37522   15.17774   16.23861    8.65236
     248      444        5    -0.37569   15.17805   19.08703    3.13332
     249      444        6    -0.58657   16.29064   21.84618    5.26561
     250      444        7    -0.69500   18.57806   18.26552    4.81877
     251      444        6    -0.58656   16.30483   13.48725    6.54380
     252      444        7    -0.69485   18.57628   17.05872    6.96850
     253      444        6    -0.58593   11.23645   17.00928    1.71459
     254      444        7    -0.69559   13.50534   16.58849    5.28996
     255      444        6    -0.58688   21.35871   18.27193   10.07823
     256      444        7    -0.69433   13.50486   18.73835    6.49631
     257      444        6    -0.58669   14.06512   13.47964    6.52025
     258      444        7    -0.69493   11.77780   17.06019    6.96679
     259      444        6    -0.58660   14.05093   21.83855    5.24183
     260      444        7    -0.69470   11.77957   18.26704    4.81710
     261      444        6    -0.58583   19.11932   18.31648   10.07104
     262      444        7    -0.69592   16.85057   18.73732    6.49559
     263      444        6    -0.58703    8.99706   17.05376    1.70743
     264      444        7    -0.69432   16.85097   16.58744    5.28931
     265      444        1     1.07396   15.16741   17.07831   15.58555
     266      444        1     1.07403   25.30907   18.22752   19.77118
     267      444        1     1.07473   20.23789   15.56263   18.25632
     268      444        1     1.07475   20.23856   19.74324   17.10046
     269      444        2     0.10093   17.25028   14.80732   16.28572
     270      444        2     0.13938   17.33362   12.34988   16.70887
     271      444        2     0.09929   17.24278   20.50141   19.03402
     272      444        2     0.13855   27.45792   22.96009   18.61977
     273      444        2     0.10042   22.31804   16.27547   20.53033
     274      444        2     0.13977   22.39529   16.68886   22.99000
     275      444        2     0.10092   22.31824   19.02015   14.82786
     276      444        2     0.13878   22.39630   18.60208   12.37083
     277      444        2     0.10118   23.22617   20.49852   19.07117
     278      444        2     0.13935   23.14279   22.95594   18.64795
     279      444        2     0.09924   23.23371   14.80451   16.32302
     280      444        2     0.13846   13.01848   12.34581   16.73704
     281      444        2     0.10049   18.15836   19.03058   14.82643
     282      444        2     0.13966   18.08108   18.61694   12.36681
     283      444        2     0.10095   18.15817   16.28563   20.52890
     284      444        2     0.13892   18.08007   16.70346   22.98599
     285      444        3     0.14902   16.33629   14.22215   16.37160
     286      444        3    -0.14493   16.37607   12.85485   16.61264
     287      444        3     0.15082   26.46932   21.08515   18.96517
     288      444        3    -0.14596   26.50276   22.45303   18.72690
     289      444        3     0.15344   21.40268   16.35436   21.11454
     290      444        3    -0.14743   21.43923   16.59167   22.48255
     291      444        3     0.14996   21.40287   18.94523   14.24329
     292      444        3    -0.14669   21.43956   18.70643   12.87554
     293      444        3     0.14866   24.14016   21.08368   18.98518
     294      444        3    -0.14479   24.10036   22.45101   18.74426
     295      444        3     0.15067   14.00713   14.22073   16.39160
     296      444        3    -0.14585   13.97364   12.85287   16.62998
     297      444        3     0.15339   19.07372   18.95141   14.24226
     298      444        3    -0.14693   19.03718   18.71418   12.87424
     299      444        3     0.14947   19.07352   16.36039   21.11352
     300      444        3    -0.14669   19.03683   16.59927   22.48126
     301      444        3     0.01568   15.17627   12.14732   16.73520
     302      444        3     0.60228   20.22980   22.43700   16.95928
     303      444        3     0.01547   25.30013   23.15856   18.62173
     304      444        3     0.60235   20.24659   12.86887   18.39746
     305      444        3     0.01799   20.23797   16.70906   23.18853
     306      444        3     0.60160   15.17779   16.94211   12.89186
     307      444        3     0.01767   20.23842   18.59682   12.16824
     308      444        3     0.60136   25.29858   18.36355   22.46494
     309      444        4     1.51063   22.77439   17.65228   17.67863
     310      444        4     1.51014   17.70209   17.65355   17.67807
     311      444        5    -0.37125   15.17019   14.89728   16.25185
     312      444        5    -0.37123   25.30625   20.40856   19.10485
     313      444        5    -0.37522   20.23805   16.22864   20.43792
     314      444        5    -0.37569   20.23836   19.07706   14.91888
     315      444        6    -0.58657   21.35095   21.83621   17.05117
     316      444        7    -0.69500   23.63837   18.25555   16.60433
     317      444        6    -0.58656   21.36514   13.47728   18.32936
     318      444        7    -0.69485   23.63659   17.04875   18.75406
     319      444        6    -0.58593   16.29676   16.99931   13.50015
     320      444        7    -0.69559   18.56565   16.57852   17.07552
     321      444        6    -0.58688   26.41902   18.26197   21.86379
     322      444        7    -0.69433   18.56517   18.72838   18.28187
     323      444        6    -0.58669   19.12543   13.46967   18.30581
     324      444        7    -0.69493   16.83811   17.05022   18.75235
     325      444        6    -0.58660   19.11124   21.82859   17.02739
     326      444        7    -0.69470   16.83988   18.25708   16.60266
     327      444        6    -0.58583   24.17963   18.30651   21.85660
     328      444        7    -0.69592   21.91088   18.72736   18.28115
     329      444        6    -0.58703   14.05737   17.04379   13.49299
     330      444        7    -0.69432   21.91128   16.57747   17.07487
     331      444        1     1.07396   20.22772   17.06835   27.37111
     332      444        1     1.07403   30.36938   18.21755   31.55674
     333      444        1     1.07473   25.29820   15.55266   30.04188
     334      444        1     1.07475   25.29887   19.73327   28.88602
     335      444        2     0.10093   22.31059   14.79736   28.07128
     336      444        2     0.13938   22.39393   12.33991   28.49443
     337      444        2     0.09929   22.30309   20.49144   30.81958
     338      444        2     0.13855   32.51823   22.95012   30.40533
     339      444        2     0.10042   27.37835   16.26550   32.31589
     340      444        2     0.13977   27.45560   16.67889   34.77556
     341      444        2     0.10092   27.37855   19.01018   26.61342
     342      444        2     0.13878   27.45661   18.59211   24.15639
     343      444        2     0.10118   28.28648   20.48855   30.85673
     344      444        2     0.13935   28.20310   22.94597   30.43351
     345      444        2     0.09924   28.29402   14.79454   28.10858
     346      444        2     0.13846   18.07879   12.33584   28.52260
     347      444        2     0.10049   23.21867   19.02061   26.61199
     348      444        2     0.13966   23.14139   18.60697   24.15237
     349      444        2     0.10095   23.21848   16.27566   32.31446
     350      444        2     0.13892   23.14038   16.69350   34.77155
     351      444        3     0.14902   21.39660   14.21218   28.15716
     352      444        3    -0.14493   21.43638   12.84488   28.39820
     353      444        3     0.15082   31.52963   21.07518   30.75073
     354      444        3    -0.14596   31.56307   22.44306   30.51246
     355      444        3     0.15344   26.46299   16.34439   32.90010
     356      444        3    -0.14743   26.49954   16.58171   34.26811
     357      444        3     0.14996   26.46318   18.93526   26.02885
     358      444        3    -0.14669   26.49987   18.69646   24.66110
     359      444        3     0.14866   29.20048   21.07372   30.77074
     360      444        3    -0.14479   29.16067   22.44105   30.52982
     361      444        3     0.15067   19.06744   14.21076   28.17716
     362      444        3    -0.14585   19.03395   12.84290   28.41554
     363      444        3     0.15339   24.13403   18.94144   26.02782
     364      444        3    -0.14693   24.09749   18.70421   24.65980