Created on Tue Feb 06 15:01:25 2018 

        1368 atoms
        1728 bonds
        3384 angles
        2376 dihedrals

           4 atom types
           4 bond types
           5 angle types
           1 dihedral types
           0.000000  27.061501 xlo xhi
           0.000000  25.242387 ylo yhi
           0.000000  39.034000 zlo zhi
           9.799999   0.002042  -0.000060 xy xz yz

Masses

    1    26.981538600 # Al6+3
    2    30.973762000 # P_3+5
    3    15.999400000 # O_2
    4    15.999400000 # O_3_z

Bond Coeffs

    1      239.165571        1.788660  # Al6+3 O_2
    2      284.394731        1.688316  # Al6+3 O_3_z
    3      572.196304        1.563412  # P_3+5 O_3_z
    4      471.759940        1.667304  # P_3+5 O_2

Angle Coeffs

    1              cosine/periodic      117.080903               1               4 # O_2 Al6+3 O_3_z
    2              cosine/periodic      135.825214               1               4 # O_3_z Al6+3 O_3_z
    3                      fourier      115.168344        0.343737        0.374972        0.281246 # O_3_z P_3+5 O_3_z
    4                      fourier       97.715562        0.343737        0.374972        0.281246 # O_3_z P_3+5 O_2
    5                      fourier       46.570842        1.898490        2.651251        0.799497 # Al6+3 O_3_z P_3+5

Dihedral Coeffs

    1        0.136931               1               2 # O_3_z P_3+5 O_3_z Al6+3

Pair Coeffs

    1        0.505000        4.008153 # Al6+3 Al6+3
    2        0.305000        3.694557 # P_3+5 P_3+5
    3        0.060000        3.118146 # O_2 O_2
    4        0.060000        3.118146 # O_3_z O_3_z

Atoms

       1      444        1     1.91455    5.93646    8.24851    6.37138
       2      444        1     2.04527    4.30338    7.20582    1.61652
       3      444        1     2.02956    3.48832    4.21749    6.19889
       4      444        1     1.91414    3.47250    4.37032   16.13041
       5      444        1     2.03221    5.10751    5.41419   11.37513
       6      444        1     2.03045    5.92101    8.40081   15.95743
       7      444        1     1.91511    6.35130    0.16360   13.19995
       8      444        1     2.03214    7.98304    1.20647   17.95474
       9      444        1     2.02958    8.79937    4.19430   13.37248
      10      444        1     1.91470    8.81377    4.04176    3.44075
      11      444        1     2.03226    7.18023    2.99806    8.19614
      12      444        1     2.03001    6.36579    0.01066    3.61416
      13      444        2     2.12483    5.51496    5.60898    8.19080
      14      444        2     2.11756    5.25075    1.61609    6.05927
      15      444        2     1.91468    7.03184    6.69518    3.10839
      16      444        2     2.09541    3.89355    7.00956   17.94955
      17      444        2     2.11754    9.91224    2.58816   15.81736
      18      444        2     1.91584    2.37955    5.92467   12.86810
      19      444        2     2.12711    6.77297    2.80313   11.38048
      20      444        2     2.11782    7.03690    6.79573   13.51205
      21      444        2     1.91791    5.25435    1.71679   16.46304
      22      444        2     2.12691    8.39245    1.40214    1.62173
      23      444        2     2.11559    2.37430    5.82373    3.75394
      24      444        2     1.91716    9.90841    2.48771    6.70348
      25      444        3    -0.58348    5.44912    7.79841    4.71562
      26      444        4    -0.98965    5.80207    6.96147    7.53594
      27      444        3    -0.39709    6.30737    6.57212    4.54867
      28      444        4    -1.02615    4.31084    0.45891    6.45468
      29      444        4    -0.95116    7.68128    5.32232    2.97400
      30      444        4    -1.04944    4.24617    4.96101    7.58969
      31      444        4    -1.01888    6.14614    1.18650    4.88534
      32      444        4    -0.99030    8.04354    7.84169    3.09661
      33      444        4    -1.06065    4.43177    2.85198    5.61908
      34      444        4    -0.94611    5.99757    6.93494    2.01575
      35      444        4    -1.05521    6.73498    4.68534    7.97164
      36      444        4    -1.03045    5.27475    5.84621    9.68676
      37      444        4    -1.03922    6.12571    1.94508    7.27728
      38      444        3    -0.58364    3.96158    4.82099   14.47529
      39      444        4    -0.97794    3.60604    5.65639   17.29618
      40      444        3    -0.39788    3.10420    6.04790   14.30824
      41      444        4    -1.02512    1.83123    3.74584   16.21250
      42      444        4    -0.94987   10.75095    7.29759   12.73346
      43      444        4    -1.03757    5.16214    7.65660   17.34712
      44      444        4    -1.01871    9.01718    3.01712   14.64302
      45      444        4    -0.98900   10.38868    4.77803   12.85680
      46      444        4    -1.06150    1.71111    1.35238   15.37758
      47      444        4    -0.94359    3.41359    5.68474   11.77535
      48      444        4    -1.04196   11.69413    7.93315   17.73022
      49      444        4    -1.04177    4.13368    6.77373    0.00000
      50      444        4    -1.03801    9.03738    2.25940   17.03539
      51      444        3    -0.58562    6.83739    0.61350   14.85611
      52      444        4    -0.99063    6.48566    1.45068   12.03537
      53      444        3    -0.39629    5.97842    1.83942   15.02251
      54      444        4    -1.02541    7.97729    7.95246   13.11660
      55      444        4    -0.95063    4.60454    3.08949   16.59712
      56      444        4    -1.04995    8.04203    3.45080   11.98131
      57      444        4    -1.02026    6.14160    7.22546   14.68598
      58      444        4    -0.98997    4.24295    0.57010   16.47555
      59      444        4    -1.06210    7.85528    5.55943   13.95223
      60      444        4    -0.94433    6.28892    1.47786   17.55556
      61      444        4    -1.05692    5.55318    3.72705   11.59975
      62      444        4    -1.02897    7.01288    2.56589    9.88446
      63      444        4    -1.03751    6.16178    6.46745   12.29391
      64      444        3    -0.58466    8.32603    3.59123    5.09630
      65      444        4    -0.99105    8.67942    2.75509    2.27576
      66      444        3    -0.39544    9.18413    2.36478    5.26313
      67      444        4    -1.02619   10.45480    4.66677    3.35796
      68      444        4    -0.95132    1.53728    1.11491    6.83790
      69      444        4    -1.05023    7.12413    0.75405    2.22367
      70      444        4    -1.01991    3.26950    5.39353    4.92761
      71      444        4    -0.99020    1.89916    3.63446    6.71551
      72      444        4    -1.06204   10.57587    7.05948    4.19477
      73      444        4    -0.94637    8.87410    2.72733    7.79601
      74      444        4    -1.05838    0.59221    0.47908    1.84088
      75      444        4    -1.03172    8.15141    1.63862    0.12592
      76      444        4    -1.03786    3.24911    6.15318    2.53608
      77      444        1     1.91455    5.93748    8.24848   25.88838
      78      444        1     2.04527    4.30440    7.20579   21.13352
      79      444        1     2.02956    3.48934    4.21746   25.71589
      80      444        1     1.91414    3.47352    4.37029   35.64741
      81      444        1     2.03221    5.10853    5.41416   30.89213
      82      444        1     2.03045    5.92203    8.40078   35.47443
      83      444        1     1.91511    6.35233    0.16357   32.71695
      84      444        1     2.03214    7.98407    1.20644   37.47174
      85      444        1     2.02958    8.80040    4.19427   32.88948
      86      444        1     1.91470    8.81479    4.04173   22.95775
      87      444        1     2.03226    7.18125    2.99803   27.71314
      88      444        1     2.03001    6.36681    0.01063   23.13116
      89      444        2     2.12483    5.51598    5.60895   27.70780
      90      444        2     2.11756    5.25177    1.61606   25.57627
      91      444        2     1.91468    7.03286    6.69515   22.62539
      92      444        2     2.09541    3.89458    7.00953   37.46655
      93      444        2     2.11754    9.91326    2.58813   35.33436
      94      444        2     1.91584    2.38057    5.92464   32.38510
      95      444        2     2.12711    6.77399    2.80310   30.89748
      96      444        2     2.11782    7.03792    6.79570   33.02905
      97      444        2     1.91791    5.25537    1.71676   35.98004
      98      444        2     2.12691    8.39347    1.40211   21.13873
      99      444        2     2.11559    2.37532    5.82370   23.27094
     100      444        2     1.91716    9.90943    2.48768   26.22048
     101      444        3    -0.58348    5.45014    7.79838   24.23262
     102      444        4    -0.98965    5.80309    6.96144   27.05294
     103      444        3    -0.39709    6.30839    6.57209   24.06567
     104      444        4    -1.02615    4.31186    0.45888   25.97168
     105      444        4    -0.95116    7.68230    5.32229   22.49100
     106      444        4    -1.04944    4.24719    4.96098   27.10669
     107      444        4    -1.01888    6.14716    1.18647   24.40234
     108      444        4    -0.99030    8.04456    7.84166   22.61361
     109      444        4    -1.06065    4.43279    2.85195   25.13608
     110      444        4    -0.94611    5.99859    6.93491   21.53275
     111      444        4    -1.05521    6.73600    4.68531   27.48864
     112      444        4    -1.03045    5.27577    5.84618   29.20376
     113      444        4    -1.03922    6.12673    1.94505   26.79428
     114      444        3    -0.58364    3.96260    4.82096   33.99229
     115      444        4    -0.97794    3.60706    5.65636   36.81318
     116      444        3    -0.39788    3.10522    6.04787   33.82524
     117      444        4    -1.02512    1.83225    3.74581   35.72950
     118      444        4    -0.94987   10.75198    7.29756   32.25046
     119      444        4    -1.03757    5.16317    7.65657   36.86412
     120      444        4    -1.01871    9.01821    3.01709   34.16002
     121      444        4    -0.98900   10.38970    4.77800   32.37380
     122      444        4    -1.06150    1.71213    1.35235   34.89458
     123      444        4    -0.94359    3.41461    5.68471   31.29235
     124      444        4    -1.04196   11.69515    7.93312   37.24722
     125      444        4    -1.04177    4.13470    6.77370   19.51700
     126      444        4    -1.03801    9.03840    2.25937   36.55239
     127      444        3    -0.58562    6.83841    0.61347   34.37311
     128      444        4    -0.99063    6.48668    1.45065   31.55237
     129      444        3    -0.39629    5.97944    1.83939   34.53951
     130      444        4    -1.02541    7.97831    7.95243   32.63359
     131      444        4    -0.95063    4.60556    3.08946   36.11412
     132      444        4    -1.04995    8.04305    3.45077   31.49831
     133      444        4    -1.02026    6.14262    7.22543   34.20298
     134      444        4    -0.98997    4.24397    0.57007   35.99255
     135      444        4    -1.06210    7.85630    5.55940   33.46923
     136      444        4    -0.94433    6.28994    1.47783   37.07256
     137      444        4    -1.05692    5.55420    3.72702   31.11675
     138      444        4    -1.02897    7.01390    2.56586   29.40146
     139      444        4    -1.03751    6.16280    6.46742   31.81091
     140      444        3    -0.58466    8.32705    3.59120   24.61330
     141      444        4    -0.99105    8.68044    2.75506   21.79276
     142      444        3    -0.39544    9.18515    2.36475   24.78013
     143      444        4    -1.02619   10.45582    4.66674   22.87496
     144      444        4    -0.95132    1.53831    1.11488   26.35490
     145      444        4    -1.05023    7.12515    0.75402   21.74067
     146      444        4    -1.01991    3.27053    5.39350   24.44461
     147      444        4    -0.99020    1.90018    3.63443   26.23251
     148      444        4    -1.06204   10.57689    7.05945   23.71177
     149      444        4    -0.94637    8.87512    2.72730   27.31301
     150      444        4    -1.05838    0.59324    0.47905   21.35788
     151      444        4    -1.03172    8.15243    1.63859   19.64292
     152      444        4    -1.03786    3.25013    6.15315   22.05308
     153      444        1     1.91455    9.20312   16.66264    6.37138
     154      444        1     2.04527    7.57005   15.61995    1.61652
     155      444        1     2.02956    6.75498   12.63162    6.19889
     156      444        1     1.91414    6.73916   12.78445   16.13041
     157      444        1     2.03221    8.37418   13.82832   11.37513
     158      444        1     2.03045    9.18767   16.81494   15.95743
     159      444        1     1.91511    9.61797    8.57773   13.19995
     160      444        1     2.03214   11.24971    9.62060   17.95474
     161      444        1     2.02958   12.06604   12.60843   13.37248
     162      444        1     1.91470   12.08044   12.45588    3.44075
     163      444        1     2.03226   10.44690   11.41219    8.19614
     164      444        1     2.03001    9.63245    8.42479    3.61416
     165      444        2     2.12483    8.78162   14.02311    8.19080
     166      444        2     2.11756    8.51742   10.03022    6.05927
     167      444        2     1.91468   10.29851   15.10931    3.10839
     168      444        2     2.09541    7.16022   15.42369   17.94955
     169      444        2     2.11754   13.17891   11.00229   15.81736
     170      444        2     1.91584    5.64621   14.33880   12.86810
     171      444        2     2.12711   10.03963   11.21726   11.38048
     172      444        2     2.11782   10.30357   15.20986   13.51205
     173      444        2     1.91791    8.52102   10.13092   16.46304
     174      444        2     2.12691   11.65911    9.81627    1.62173
     175      444        2     2.11559    5.64096   14.23786    3.75394
     176      444        2     1.91716   13.17508   10.90184    6.70348
     177      444        3    -0.58348    8.71578   16.21254    4.71562
     178      444        4    -0.98965    9.06873   15.37560    7.53594
     179      444        3    -0.39709    9.57403   14.98625    4.54867
     180      444        4    -1.02615    7.57750    8.87304    6.45468
     181      444        4    -0.95116   10.94795   13.73645    2.97400
     182      444        4    -1.04944    7.51284   13.37514    7.58969
     183      444        4    -1.01888    9.41281    9.60063    4.88534
     184      444        4    -0.99030   11.31020   16.25582    3.09661
     185      444        4    -1.06065    7.69844   11.26611    5.61908
     186      444        4    -0.94611    9.26424   15.34907    2.01575
     187      444        4    -1.05521   10.00165   13.09947    7.97164
     188      444        4    -1.03045    8.54142   14.26034    9.68676
     189      444        4    -1.03922    9.39238   10.35921    7.27728
     190      444        3    -0.58364    7.22824   13.23512   14.47529
     191      444        4    -0.97794    6.87270   14.07052   17.29618
     192      444        3    -0.39788    6.37087   14.46203   14.30824
     193      444        4    -1.02512    5.09790   12.15997   16.21250
     194      444        4    -0.94987   14.01762   15.71172   12.73346
     195      444        4    -1.03757    8.42881   16.07072   17.34712
     196      444        4    -1.01871   12.28385   11.43124   14.64302
     197      444        4    -0.98900   13.65534   13.19216   12.85680
     198      444        4    -1.06150    4.97778    9.76651   15.37758
     199      444        4    -0.94359    6.68026   14.09886   11.77535
     200      444        4    -1.04196   14.96080   16.34728   17.73022
     201      444        4    -1.04177    7.40035   15.18786    0.00000
     202      444        4    -1.03801   12.30404   10.67353   17.03539
     203      444        3    -0.58562   10.10406    9.02763   14.85611
     204      444        4    -0.99063    9.75232    9.86481   12.03537
     205      444        3    -0.39629    9.24509   10.25355   15.02251
     206      444        4    -1.02541   11.24396   16.36659   13.11660
     207      444        4    -0.95063    7.87121   11.50362   16.59712
     208      444        4    -1.04995   11.30870   11.86493   11.98131
     209      444        4    -1.02026    9.40826   15.63959   14.68598
     210      444        4    -0.98997    7.50961    8.98423   16.47555
     211      444        4    -1.06210   11.12195   13.97356   13.95223
     212      444        4    -0.94433    9.55559    9.89199   17.55556
     213      444        4    -1.05692    8.81985   12.14118   11.59975
     214      444        4    -1.02897   10.27955   10.98002    9.88446
     215      444        4    -1.03751    9.42845   14.88158   12.29391
     216      444        3    -0.58466   11.59269   12.00536    5.09630
     217      444        4    -0.99105   11.94609   11.16921    2.27576
     218      444        3    -0.39544   12.45079   10.77891    5.26313
     219      444        4    -1.02619   13.72146   13.08090    3.35796
     220      444        4    -0.95132    4.80395    9.52904    6.83790
     221      444        4    -1.05023   10.39080    9.16818    2.22367
     222      444        4    -1.01991    6.53617   13.80766    4.92761
     223      444        4    -0.99020    5.16582   12.04858    6.71551
     224      444        4    -1.06204   13.84253   15.47361    4.19477
     225      444        4    -0.94637   12.14076   11.14146    7.79601
     226      444        4    -1.05838    3.85888    8.89321    1.84088
     227      444        4    -1.03172   11.41807   10.05275    0.12592
     228      444        4    -1.03786    6.51577   14.56731    2.53608
     229      444        1     1.91455    9.20415   16.66261   25.88838
     230      444        1     2.04527    7.57107   15.61992   21.13352
     231      444        1     2.02956    6.75601   12.63159   25.71589
     232      444        1     1.91414    6.74019   12.78442   35.64741
     233      444        1     2.03221    8.37520   13.82829   30.89213
     234      444        1     2.03045    9.18869   16.81491   35.47443
     235      444        1     1.91511    9.61899    8.57770   32.71695
     236      444        1     2.03214   11.25073    9.62057   37.47174
     237      444        1     2.02958   12.06706   12.60840   32.88948
     238      444        1     1.91470   12.08146   12.45585   22.95775
     239      444        1     2.03226   10.44792   11.41216   27.71314
     240      444        1     2.03001    9.63347    8.42476   23.13116
     241      444        2     2.12483    8.78265   14.02308   27.70780
     242      444        2     2.11756    8.51844   10.03019   25.57627
     243      444        2     1.91468   10.29953   15.10928   22.62539
     244      444        2     2.09541    7.16124   15.42366   37.46655
     245      444        2     2.11754   13.17993   11.00226   35.33436
     246      444        2     1.91584    5.64723   14.33877   32.38510
     247      444        2     2.12711   10.04065   11.21723   30.89748
     248      444        2     2.11782   10.30459   15.20983   33.02905
     249      444        2     1.91791    8.52204   10.13089   35.98004
     250      444        2     2.12691   11.66013    9.81624   21.13873
     251      444        2     2.11559    5.64199   14.23783   23.27094
     252      444        2     1.91716   13.17610   10.90181   26.22048
     253      444        3    -0.58348    8.71681   16.21251   24.23262
     254      444        4    -0.98965    9.06975   15.37557   27.05294
     255      444        3    -0.39709    9.57506   14.98622   24.06567
     256      444        4    -1.02615    7.57852    8.87301   25.97168
     257      444        4    -0.95116   10.94897   13.73642   22.49100
     258      444        4    -1.04944    7.51386   13.37511   27.10669
     259      444        4    -1.01888    9.41383    9.60060   24.40234
     260      444        4    -0.99030   11.31122   16.25579   22.61361
     261      444        4    -1.06065    7.69946   11.26608   25.13608
     262      444        4    -0.94611    9.26526   15.34904   21.53275
     263      444        4    -1.05521   10.00267   13.09944   27.48864
     264      444        4    -1.03045    8.54244   14.26031   29.20376
     265      444        4    -1.03922    9.39340   10.35918   26.79428
     266      444        3    -0.58364    7.22926   13.23509   33.99229
     267      444        4    -0.97794    6.87373   14.07049   36.81318
     268      444        3    -0.39788    6.37189   14.46200   33.82524
     269      444        4    -1.02512    5.09892   12.15994   35.72950
     270      444        4    -0.94987   14.01864   15.71169   32.25046
     271      444        4    -1.03757    8.42983   16.07069   36.86412
     272      444        4    -1.01871   12.28487   11.43121   34.16002
     273      444        4    -0.98900   13.65637   13.19213   32.37380
     274      444        4    -1.06150    4.97880    9.76648   34.89458
     275      444        4    -0.94359    6.68128   14.09883   31.29235
     276      444        4    -1.04196   14.96182   16.34725   37.24722
     277      444        4    -1.04177    7.40137   15.18783   19.51700
     278      444        4    -1.03801   12.30507   10.67350   36.55239
     279      444        3    -0.58562   10.10508    9.02760   34.37311
     280      444        4    -0.99063    9.75334    9.86478   31.55237
     281      444        3    -0.39629    9.24611   10.25352   34.53951
     282      444        4    -1.02541   11.24498   16.36656   32.63359
     283      444        4    -0.95063    7.87223   11.50359   36.11412
     284      444        4    -1.04995   11.30972   11.86490   31.49831
     285      444        4    -1.02026    9.40928   15.63956   34.20298
     286      444        4    -0.98997    7.51064    8.98420   35.99255
     287      444        4    -1.06210   11.12297   13.97353   33.46923
     288      444        4    -0.94433    9.55661    9.89196   37.07256
     289      444        4    -1.05692    8.82087   12.14115   31.11675
     290      444        4    -1.02897   10.28057   10.97999   29.40146
     291      444        4    -1.03751    9.42947   14.88155   31.81091
     292      444        3    -0.58466   11.59372   12.00533   24.61330
     293      444        4    -0.99105   11.94711   11.16918   21.79276
     294      444        3    -0.39544   12.45181   10.77888   24.78013
     295      444        4    -1.02619   13.72249   13.08087   22.87496
     296      444        4    -0.95132    4.80497    9.52901   26.35490
     297      444        4    -1.05023   10.39182    9.16815   21.74067
     298      444        4    -1.01991    6.53719   13.80763   24.44461
     299      444        4    -0.99020    5.16684   12.04855   26.23251
     300      444        4    -1.06204   13.84355   15.47358   23.71177
     301      444        4    -0.94637   12.14178   11.14143   27.31301
     302      444        4    -1.05838    3.85990    8.89318   21.35788
     303      444        4    -1.03172   11.41910   10.05272   19.64292
     304      444        4    -1.03786    6.51679   14.56728   22.05308
     305      444        1     1.91455   12.46979   25.07677    6.37138
     306      444        1     2.04527   10.83672   24.03408    1.61652
     307      444        1     2.02956   10.02165   21.04575    6.19889
     308      444        1     1.91414   10.00583   21.19858   16.13041
     309      444        1     2.03221   11.64084   22.24245   11.37513
     310      444        1     2.03045   12.45434   25.22907   15.95743
     311      444        1     1.91511   12.88464   16.99186   13.19995
     312      444        1     2.03214   14.51638   18.03473   17.95474
     313      444        1     2.02958   15.33271   21.02256   13.37248
     314      444        1     1.91470   15.34711   20.87001    3.44075
     315      444        1     2.03226   13.71356   19.82632    8.19614
     316      444        1     2.03001   12.89912   16.83892    3.61416
     317      444        2     2.12483   12.04829   22.43724    8.19080
     318      444        2     2.11756   11.78408   18.44435    6.05927
     319      444        2     1.91468   13.56518   23.52344    3.10839
     320      444        2     2.09541   10.42689   23.83782   17.94955
     321      444        2     2.11754   16.44558   19.41642   15.81736
     322      444        2     1.91584    8.91288   22.75293   12.86810
     323      444        2     2.12711   13.30630   19.63139   11.38048
     324      444        2     2.11782   13.57023   23.62399   13.51205
     325      444        2     1.91791   11.78769   18.54505   16.46304
     326      444        2     2.12691   14.92578   18.23040    1.62173
     327      444        2     2.11559    8.90763   22.65199    3.75394
     328      444        2     1.91716   16.44174   19.31597    6.70348
     329      444        3    -0.58348   11.98245   24.62667    4.71562
     330      444        4    -0.98965   12.33540   23.78973    7.53594
     331      444        3    -0.39709   12.84070   23.40038    4.54867
     332      444        4    -1.02615   10.84417   17.28717    6.45468
     333      444        4    -0.95116   14.21462   22.15058    2.97400
     334      444        4    -1.04944   10.77951   21.78927    7.58969
     335      444        4    -1.01888   12.67948   18.01476    4.88534
     336      444        4    -0.99030   14.57687   24.66995    3.09661
     337      444        4    -1.06065   10.96510   19.68024    5.61908
     338      444        4    -0.94611   12.53091   23.76320    2.01575
     339      444        4    -1.05521   13.26831   21.51360    7.97164
     340      444        4    -1.03045   11.80808   22.67446    9.68676
     341      444        4    -1.03922   12.65904   18.77334    7.27728
     342      444        3    -0.58364   10.49491   21.64925   14.47529
     343      444        4    -0.97794   10.13937   22.48465   17.29618
     344      444        3    -0.39788    9.63753   22.87616   14.30824
     345      444        4    -1.02512    8.36456   20.57410   16.21250
     346      444        4    -0.94987   17.28429   24.12585   12.73346
     347      444        4    -1.03757   11.69548   24.48485   17.34712
     348      444        4    -1.01871   15.55052   19.84537   14.64302
     349      444        4    -0.98900   16.92201   21.60629   12.85680
     350      444        4    -1.06150    8.24445   18.18064   15.37758
     351      444        4    -0.94359    9.94692   22.51299   11.77535
     352      444        4    -1.04196   18.22747   24.76141   17.73022
     353      444        4    -1.04177   10.66702   23.60199    0.00000
     354      444        4    -1.03801   15.57071   19.08766   17.03539
     355      444        3    -0.58562   13.37073   17.44176   14.85611
     356      444        4    -0.99063   13.01899   18.27894   12.03537
     357      444        3    -0.39629   12.51176   18.66768   15.02251
     358      444        4    -1.02541   14.51062   24.78072   13.11660
     359      444        4    -0.95063   11.13787   19.91775   16.59712
     360      444        4    -1.04995   14.57536   20.27906   11.98131
     361      444        4    -1.02026   12.67493   24.05372   14.68598
     362      444        4    -0.98997   10.77628   17.39836   16.47555
     363      444        4    -1.06210   14.38862   22.38769   13.95223
     364      444        4    -0.94433   12.82226   18.30612   17.55556
     365      444        4    -1.05692   12.08651   20.55531   11.59975
     366      444        4    -1.02897   13.54621   19.39415    9.88446
     367      444        4    -1.03751   12.69512   23.29571   12.29391
     368      444        3    -0.58466   14.85936   20.41948    5.09630
     369      444        4    -0.99105   15.21275   19.58334    2.27576
     370      444        3    -0.39544   15.71746   19.19304    5.26313
     371      444        4    -1.02619   16.98813   21.49503    3.35796
     372      444        4    -0.95132    8.07062   17.94317    6.83790
     373      444        4    -1.05023   13.65746   17.58231    2.22367
     374      444        4    -1.01991    9.80284   22.22179    4.92761
     375      444        4    -0.99020    8.43249   20.46271    6.71551
     376      444        4    -1.06204   17.10920   23.88774    4.19477
     377      444        4    -0.94637   15.40743   19.55558    7.79601
     378      444        4    -1.05838    7.12555   17.30734    1.84088
     379      444        4    -1.03172   14.68474   18.46688    0.12592
     380      444        4    -1.03786    9.78244   22.98144    2.53608
     381      444        1     1.91455   12.47081   25.07674   25.88838
     382      444        1     2.04527   10.83774   24.03405   21.13352
     383      444        1     2.02956   10.02267   21.04572   25.71589
     384      444        1     1.91414   10.00685   21.19855   35.64741
     385      444        1     2.03221   11.64187   22.24242   30.89213
     386      444        1     2.03045   12.45536   25.22904   35.47443
     387      444        1     1.91511   12.88566   16.99183   32.71695
     388      444        1     2.03214   14.51740   18.03470   37.47174
     389      444        1     2.02958   15.33373   21.02253   32.88948
     390      444        1     1.91470   15.34813   20.86998   22.95775
     391      444        1     2.03226   13.71459   19.82629   27.71314
     392      444        1     2.03001   12.90014   16.83889   23.13116
     393      444        2     2.12483   12.04931   22.43721   27.70780