Created on Tue Feb 06 15:01:31 2018 

        1368 atoms
        1728 bonds
        3384 angles
        2376 dihedrals

           4 atom types
           4 bond types
           5 angle types
           1 dihedral types
           0.000000  27.046500 xlo xhi
           0.000000  25.207149 ylo yhi
           0.000000  39.044000 zlo zhi
          -9.820254  -0.002724  -0.005448 xy xz yz

Masses

    1    26.981538600 # Al6+3
    2    30.973762000 # P_3+q
    3    15.999400000 # O_2
    4    15.999400000 # O_3_z

Bond Coeffs

    1      239.165571        1.788660  # Al6+3 O_2
    2      284.394731        1.688316  # Al6+3 O_3_z
    3      572.196304        1.563412  # P_3+q O_3_z
    4      471.759940        1.667304  # P_3+q O_2

Angle Coeffs

    1              cosine/periodic      117.080903               1               4 # O_2 Al6+3 O_3_z
    2              cosine/periodic      135.825214               1               4 # O_3_z Al6+3 O_3_z
    3                      fourier      115.168344        0.343737        0.374972        0.281246 # O_3_z P_3+q O_3_z
    4                      fourier       97.715562        0.343737        0.374972        0.281246 # O_3_z P_3+q O_2
    5                      fourier       46.570842        1.898490        2.651251        0.799497 # Al6+3 O_3_z P_3+q

Dihedral Coeffs

    1        0.136931               1               2 # O_3_z P_3+q O_3_z Al6+3

Pair Coeffs

    1        0.505000        4.008153 # Al6+3 Al6+3
    2        0.305000        3.694557 # P_3+q P_3+q
    3        0.060000        3.118146 # O_2 O_2
    4        0.060000        3.118146 # O_3_z O_3_z

Atoms

       1      444        1     1.91459   -0.84393    2.56701    6.37415
       2      444        1     2.04325    0.72734    1.41665    1.60771
       3      444        1     2.02880    3.80134    1.73371    6.19997
       4      444        1     1.91533    3.71249    1.63258   16.13556
       5      444        1     2.03117    2.14143    2.78414   11.36887
       6      444        1     2.02890   -0.93284    2.46643   15.96105
       7      444        1     1.91483    6.58378    5.83412   13.20167
       8      444        1     2.03046    5.01231    6.98481   17.96807
       9      444        1     2.02780    1.93810    6.66756   13.37610
      10      444        1     1.91486    2.02716    6.76868    3.44034
      11      444        1     2.03152    3.59840    5.61709    8.20711
      12      444        1     2.02847    6.67195    5.93511    3.61467
      13      444        2     2.12664    1.76754    3.12047    8.20465
      14      444        2     2.11536    5.58044    4.31412    6.05203
      15      444        2     1.91531    0.20010    4.14066    3.10603
      16      444        2     2.09646    1.10074    1.07886   17.96571
      17      444        2     2.11381    3.02979    8.28824   15.81329
      18      444        2     1.91581    2.66820    0.05998   12.86716
      19      444        2     2.12382    3.97210    5.28066   11.37141
      20      444        2     2.11469    0.15901    4.08703   13.52390
      21      444        2     1.91687    5.53975    4.26094   16.46968
      22      444        2     2.12456    4.63858    7.32252    1.61000
      23      444        2     2.11416    2.70931    0.11314    3.76265
      24      444        2     1.91651    3.07180    8.34134    6.70874
      25      444        3    -0.58428   -0.25374    2.26972    4.71714
      26      444        4    -0.99055    0.40861    2.89649    7.53832
      27      444        3    -0.39718    0.58005    3.51279    4.54691
      28      444        4    -1.02372    7.00532    3.88097    6.45585
      29      444        4    -0.95322    1.23178    5.25516    2.97492
      30      444        4    -1.05348    2.84530    2.19958    7.58816
      31      444        4    -1.01714    5.64721    5.30757    4.88044
      32      444        4    -0.98801   -1.24126    4.65222    3.09107
      33      444        4    -1.05929    4.75033    3.08842    5.60313
      34      444        4    -0.94586    0.36756    3.09269    2.01280
      35      444        4    -1.05447    2.17220    4.60181    8.02385
      36      444        4    -1.02746    1.62965    2.77516    9.69326
      37      444        4    -1.04165    4.93584    4.99588    7.26611
      38      444        3    -0.58442    3.12253    1.93039   14.47855
      39      444        4    -0.97900    2.45981    1.30342   17.29979
      40      444        3    -0.39796    2.28795    0.68789   14.30799
      41      444        4    -1.02241    4.87797    0.31768   16.21735
      42      444        4    -0.95176   -1.63669    7.34765   12.73590
      43      444        4    -1.04146    0.02289    1.99943   17.34893
      44      444        4    -1.01684    2.96370    7.29484   14.64152
      45      444        4    -0.98635    0.83624    7.95088   12.85260
      46      444        4    -1.05972    7.13206    1.11253   15.36467
      47      444        4    -0.94370    2.50101    1.10796   11.77387
      48      444        4    -1.04145   -2.57690    7.99975   17.78489
      49      444        4    -1.03711    1.23920    1.42672    0.00000
      50      444        4    -1.03960    3.67526    7.60659   17.02699
      51      444        3    -0.58581    5.99374    6.13168   14.85868
      52      444        4    -0.99020    5.33101    5.50489   12.03764
      53      444        3    -0.39631    5.15948    4.88888   15.02889
      54      444        4    -1.02238   -1.26603    4.51961   13.11986
      55      444        4    -0.95275    4.50882    3.14574   16.60071
      56      444        4    -1.05263    2.89407    6.20110   11.98807
      57      444        4    -1.01857    0.09245    3.09339   14.69538
      58      444        4    -0.98762    6.98148    3.75037   16.48449
      59      444        4    -1.05995    0.98843    5.31320   13.97289
      60      444        4    -0.94330    5.37179    5.30868   17.56306
      61      444        4    -1.05382    3.56783    3.79921   11.55197
      62      444        4    -1.02501    4.10977    5.62625    9.88284
      63      444        4    -1.03956    0.80420    3.40550   12.31001
      64      444        3    -0.58483    2.61751    6.47091    5.09721
      65      444        4    -0.99059    3.27941    7.09842    2.27584
      66      444        3    -0.39583    3.45186    7.71353    5.26784
      67      444        4    -1.02369    0.86090    8.08283    3.35884
      68      444        4    -0.95286    7.37719    1.05319    6.84010
      69      444        4    -1.05298    5.71589    6.40131    2.22680
      70      444        4    -1.01856    2.77585    1.10636    4.93452
      71      444        4    -0.98812    4.90397    0.45108    6.72340
      72      444        4    -1.06083   -1.39400    7.28957    4.21119
      73      444        4    -0.94581    3.23864    7.29319    7.80191
      74      444        4    -1.05620    8.31678    0.40145    1.79107
      75      444        4    -1.02754    4.50142    6.97762    0.12154
      76      444        4    -1.04013    2.06461    0.79510    2.54869
      77      444        1     1.91459   -0.84529    2.56429   25.89615
      78      444        1     2.04325    0.72598    1.41393   21.12971
      79      444        1     2.02880    3.79998    1.73098   25.72197
      80      444        1     1.91533    3.71113    1.62986   35.65756
      81      444        1     2.03117    2.14007    2.78142   30.89087
      82      444        1     2.02890   -0.93420    2.46370   35.48305
      83      444        1     1.91483    6.58242    5.83139   32.72367
      84      444        1     2.03046    5.01095    6.98209   37.49007
      85      444        1     2.02780    1.93674    6.66483   32.89810
      86      444        1     1.91486    2.02580    6.76596   22.96234
      87      444        1     2.03152    3.59704    5.61437   27.72911
      88      444        1     2.02847    6.67059    5.93238   23.13667
      89      444        2     2.12664    1.76618    3.11775   27.72665
      90      444        2     2.11536    5.57908    4.31139   25.57403
      91      444        2     1.91531    0.19874    4.13794   22.62803
      92      444        2     2.09646    1.09938    1.07614   37.48771
      93      444        2     2.11381    3.02843    8.28552   35.33529
      94      444        2     1.91581    2.66684    0.05726   32.38916
      95      444        2     2.12382    3.97073    5.27793   30.89341
      96      444        2     2.11469    0.15764    4.08431   33.04590
      97      444        2     1.91687    5.53839    4.25821   35.99168
      98      444        2     2.12456    4.63722    7.31980   21.13200
      99      444        2     2.11416    2.70795    0.11042   23.28465
     100      444        2     1.91651    3.07043    8.33861   26.23073
     101      444        3    -0.58428   -0.25510    2.26699   24.23914
     102      444        4    -0.99055    0.40725    2.89377   27.06032
     103      444        3    -0.39718    0.57869    3.51006   24.06891
     104      444        4    -1.02372    7.00396    3.87824   25.97785
     105      444        4    -0.95322    1.23041    5.25243   22.49692
     106      444        4    -1.05348    2.84393    2.19685   27.11016
     107      444        4    -1.01714    5.64585    5.30485   24.40244
     108      444        4    -0.98801   -1.24262    4.64950   22.61307
     109      444        4    -1.05929    4.74896    3.08570   25.12513
     110      444        4    -0.94586    0.36620    3.08996   21.53480
     111      444        4    -1.05447    2.17083    4.59908   27.54585
     112      444        4    -1.02746    1.62829    2.77244   29.21526
     113      444        4    -1.04165    4.93448    4.99316   26.78811
     114      444        3    -0.58442    3.12117    1.92767   34.00055
     115      444        4    -0.97900    2.45844    1.30069   36.82179
     116      444        3    -0.39796    2.28659    0.68517   33.82999
     117      444        4    -1.02241    4.87661    0.31496   35.73935
     118      444        4    -0.95176   -1.63805    7.34493   32.25790
     119      444        4    -1.04146    0.02153    1.99671   36.87093
     120      444        4    -1.01684    2.96234    7.29211   34.16352
     121      444        4    -0.98635    0.83488    7.94815   32.37460
     122      444        4    -1.05972    7.13070    1.10981   34.88667
     123      444        4    -0.94370    2.49965    1.10524   31.29587
     124      444        4    -1.04145   -2.57826    7.99702   37.30689
     125      444        4    -1.03711    1.23783    1.42400   19.52200
     126      444        4    -1.03960    3.67390    7.60386   36.54899
     127      444        3    -0.58581    5.99238    6.12896   34.38068
     128      444        4    -0.99020    5.32965    5.50217   31.55964
     129      444        3    -0.39631    5.15812    4.88616   34.55089
     130      444        4    -1.02238   -1.26739    4.51689   32.64186
     131      444        4    -0.95275    4.50745    3.14301   36.12271
     132      444        4    -1.05263    2.89270    6.19838   31.51007
     133      444        4    -1.01857    0.09109    3.09066   34.21738
     134      444        4    -0.98762    6.98012    3.74765   36.00649
     135      444        4    -1.05995    0.98707    5.31047   33.49489
     136      444        4    -0.94330    5.37042    5.30596   37.08506
     137      444        4    -1.05382    3.56647    3.79648   31.07397
     138      444        4    -1.02501    4.10840    5.62353   29.40484
     139      444        4    -1.03956    0.80284    3.40278   31.83201
     140      444        3    -0.58483    2.61614    6.46818   24.61921
     141      444        4    -0.99059    3.27805    7.09570   21.79784
     142      444        3    -0.39583    3.45050    7.71080   24.78984
     143      444        4    -1.02369    0.85954    8.08010   22.88084
     144      444        4    -0.95286    7.37583    1.05047   26.36210
     145      444        4    -1.05298    5.71453    6.39859   21.74880
     146      444        4    -1.01856    2.77449    1.10364   24.45652
     147      444        4    -0.98812    4.90261    0.44835   26.24540
     148      444        4    -1.06083   -1.39536    7.28685   23.73319
     149      444        4    -0.94581    3.23727    7.29046   27.32391
     150      444        4    -1.05620    8.31542    0.39873   21.31307
     151      444        4    -1.02754    4.50006    6.97490   19.64354
     152      444        4    -1.04013    2.06325    0.79237   22.07069
     153      444        1     1.91459   -4.11735   10.96940    6.37415
     154      444        1     2.04325   -2.54608    9.81904    1.60771
     155      444        1     2.02880    0.52792   10.13609    6.19997
     156      444        1     1.91533    0.43907   10.03497   16.13556
     157      444        1     2.03117   -1.13199   11.18652   11.36887
     158      444        1     2.02890   -4.20625   10.86881   15.96105
     159      444        1     1.91483    3.31036   14.23650   13.20167
     160      444        1     2.03046    1.73889   15.38720   17.96807
     161      444        1     2.02780   -1.33532   15.06994   13.37610
     162      444        1     1.91486   -1.24625   15.17106    3.44034
     163      444        1     2.03152    0.32498   14.01947    8.20711
     164      444        1     2.02847    3.39853   14.33749    3.61467
     165      444        2     2.12664   -1.50588   11.52286    8.20465
     166      444        2     2.11536    2.30702   12.71650    6.05203
     167      444        2     1.91531   -3.07332   12.54305    3.10603
     168      444        2     2.09646   -2.17268    9.48125   17.96571
     169      444        2     2.11381   -0.24362   16.69062   15.81329
     170      444        2     1.91581   -0.60522    8.46236   12.86716
     171      444        2     2.12382    0.69868   13.68304   11.37141
     172      444        2     2.11469   -3.11441   12.48941   13.52390
     173      444        2     1.91687    2.26633   12.66332   16.46968
     174      444        2     2.12456    1.36516   15.72490    1.61000
     175      444        2     2.11416   -0.56411    8.51553    3.76265
     176      444        2     1.91651   -0.20162   16.74372    6.70874
     177      444        3    -0.58428   -3.52716   10.67210    4.71714
     178      444        4    -0.99055   -2.86480   11.29888    7.53832
     179      444        3    -0.39718   -2.69337   11.91517    4.54691
     180      444        4    -1.02372    3.73190   12.28335    6.45585
     181      444        4    -0.95322   -2.04164   13.65754    2.97492
     182      444        4    -1.05348   -0.42812   10.60196    7.58816
     183      444        4    -1.01714    2.37380   13.70996    4.88044
     184      444        4    -0.98801   -4.51468   13.05460    3.09107
     185      444        4    -1.05929    1.47691   11.49080    5.60313
     186      444        4    -0.94586   -2.90586   11.49507    2.01280
     187      444        4    -1.05447   -1.10122   13.00419    8.02385
     188      444        4    -1.02746   -1.64377   11.17755    9.69326
     189      444        4    -1.04165    1.66242   13.39827    7.26611
     190      444        3    -0.58442   -0.15089   10.33278   14.47855
     191      444        4    -0.97900   -0.81361    9.70580   17.29979
     192      444        3    -0.39796   -0.98547    9.09027   14.30799
     193      444        4    -1.02241    1.60455    8.72007   16.21735
     194      444        4    -0.95176   -4.91011   15.75004   12.73590
     195      444        4    -1.04146   -3.25053   10.40181   17.34893
     196      444        4    -1.01684   -0.30971   15.69722   14.64152
     197      444        4    -0.98635   -2.43718   16.35326   12.85260
     198      444        4    -1.05972    3.85865    9.51492   15.36467
     199      444        4    -0.94370   -0.77241    9.51034   11.77387
     200      444        4    -1.04145   -5.85032   16.40213   17.78489
     201      444        4    -1.03711   -2.03422    9.82911    0.00000
     202      444        4    -1.03960    0.40184   16.00897   17.02699
     203      444        3    -0.58581    2.72032   14.53407   14.85868
     204      444        4    -0.99020    2.05759   13.90727   12.03764
     205      444        3    -0.39631    1.88607   13.29126   15.02889
     206      444        4    -1.02238   -4.53945   12.92199   13.11986
     207      444        4    -0.95275    1.23540   11.54812   16.60071
     208      444        4    -1.05263   -0.37935   14.60348   11.98807
     209      444        4    -1.01857   -3.18097   11.49577   14.69538
     210      444        4    -0.98762    3.70806   12.15276   16.48449
     211      444        4    -1.05995   -2.28498   13.71558   13.97289
     212      444        4    -0.94330    2.09837   13.71106   17.56306
     213      444        4    -1.05382    0.29441   12.20159   11.55197
     214      444        4    -1.02501    0.83635   14.02863    9.88284
     215      444        4    -1.03956   -2.46921   11.80788   12.31001
     216      444        3    -0.58483   -0.65591   14.87329    5.09721
     217      444        4    -0.99059    0.00599   15.50080    2.27584
     218      444        3    -0.39583    0.17844   16.11591    5.26784
     219      444        4    -1.02369   -2.41252   16.48521    3.35884
     220      444        4    -0.95286    4.10377    9.45557    6.84010
     221      444        4    -1.05298    2.44247   14.80370    2.22680
     222      444        4    -1.01856   -0.49757    9.50874    4.93452
     223      444        4    -0.98812    1.63056    8.85346    6.72340
     224      444        4    -1.06083   -4.66742   15.69196    4.21119
     225      444        4    -0.94581   -0.03478   15.69557    7.80191
     226      444        4    -1.05620    5.04336    8.80383    1.79107
     227      444        4    -1.02754    1.22800   15.38001    0.12154
     228      444        4    -1.04013   -1.20881    9.19748    2.54869
     229      444        1     1.91459   -4.11871   10.96667   25.89615
     230      444        1     2.04325   -2.54744    9.81631   21.12971
     231      444        1     2.02880    0.52656   10.13337   25.72197
     232      444        1     1.91533    0.43771   10.03224   35.65756
     233      444        1     2.03117   -1.13335   11.18380   30.89087
     234      444        1     2.02890   -4.20762   10.86609   35.48305
     235      444        1     1.91483    3.30900   14.23378   32.72367
     236      444        1     2.03046    1.73753   15.38447   37.49007
     237      444        1     2.02780   -1.33668   15.06722   32.89810
     238      444        1     1.91486   -1.24762   15.16834   22.96234
     239      444        1     2.03152    0.32362   14.01675   27.72911
     240      444        1     2.02847    3.39717   14.33477   23.13667
     241      444        2     2.12664   -1.50724   11.52013   27.72665
     242      444        2     2.11536    2.30566   12.71377   25.57403
     243      444        2     1.91531   -3.07468   12.54032   22.62803
     244      444        2     2.09646   -2.17404    9.47852   37.48771
     245      444        2     2.11381   -0.24499   16.68790   35.33529
     246      444        2     1.91581   -0.60658    8.45964   32.38916
     247      444        2     2.12382    0.69732   13.68031   30.89341
     248      444        2     2.11469   -3.11577   12.48669   33.04590
     249      444        2     1.91687    2.26497   12.66060   35.99168
     250      444        2     2.12456    1.36380   15.72218   21.13200
     251      444        2     2.11416   -0.56547    8.51280   23.28465
     252      444        2     1.91651   -0.20298   16.74100   26.23073
     253      444        3    -0.58428   -3.52852   10.66938   24.23914
     254      444        4    -0.99055   -2.86617   11.29615   27.06032
     255      444        3    -0.39718   -2.69473   11.91245   24.06891
     256      444        4    -1.02372    3.73054   12.28063   25.97785
     257      444        4    -0.95322   -2.04300   13.65482   22.49692
     258      444        4    -1.05348   -0.42948   10.59923   27.11016
     259      444        4    -1.01714    2.37243   13.70723   24.40244
     260      444        4    -0.98801   -4.51604   13.05188   22.61307
     261      444        4    -1.05929    1.47555   11.48808   25.12513
     262      444        4    -0.94586   -2.90722   11.49235   21.53480
     263      444        4    -1.05447   -1.10258   13.00147   27.54585
     264      444        4    -1.02746   -1.64513   11.17482   29.21526
     265      444        4    -1.04165    1.66106   13.39554   26.78811
     266      444        3    -0.58442   -0.15225   10.33005   34.00055
     267      444        4    -0.97900   -0.81497    9.70308   36.82179
     268      444        3    -0.39796   -0.98683    9.08755   33.82999
     269      444        4    -1.02241    1.60319    8.71734   35.73935
     270      444        4    -0.95176   -4.91147   15.74731   32.25790
     271      444        4    -1.04146   -3.25189   10.39909   36.87093
     272      444        4    -1.01684   -0.31108   15.69450   34.16352
     273      444        4    -0.98635   -2.43854   16.35054   32.37460
     274      444        4    -1.05972    3.85728    9.51219   34.88667
     275      444        4    -0.94370   -0.77377    9.50762   31.29587
     276      444        4    -1.04145   -5.85168   16.39941   37.30689
     277      444        4    -1.03711   -2.03558    9.82638   19.52200
     278      444        4    -1.03960    0.40048   16.00625   36.54899
     279      444        3    -0.58581    2.71896   14.53134   34.38068
     280      444        4    -0.99020    2.05623   13.90455   31.55964
     281      444        3    -0.39631    1.88470   13.28854   34.55089
     282      444        4    -1.02238   -4.54081   12.91927   32.64186
     283      444        4    -0.95275    1.23404   11.54540   36.12271
     284      444        4    -1.05263   -0.38071   14.60076   31.51007
     285      444        4    -1.01857   -3.18233   11.49305   34.21738
     286      444        4    -0.98762    3.70670   12.15003   36.00649
     287      444        4    -1.05995   -2.28635   13.71286   33.49489
     288      444        4    -0.94330    2.09701   13.70834   37.08506
     289      444        4    -1.05382    0.29305   12.19887   31.07397
     290      444        4    -1.02501    0.83499   14.02591   29.40484
     291      444        4    -1.03956   -2.47058   11.80516   31.83201
     292      444        3    -0.58483   -0.65727   14.87056   24.61921
     293      444        4    -0.99059    0.00463   15.49808   21.79784
     294      444        3    -0.39583    0.17708   16.11319   24.78984
     295      444        4    -1.02369   -2.41388   16.48248   22.88084
     296      444        4    -0.95286    4.10241    9.45285   26.36210
     297      444        4    -1.05298    2.44111   14.80097   21.74880
     298      444        4    -1.01856   -0.49893    9.50602   24.45652
     299      444        4    -0.98812    1.62919    8.85074   26.24540
     300      444        4    -1.06083   -4.66878   15.68923   23.73319
     301      444        4    -0.94581   -0.03614   15.69285   27.32391
     302      444        4    -1.05620    5.04200    8.80111   21.31307
     303      444        4    -1.02754    1.22664   15.37728   19.64354
     304      444        4    -1.04013   -1.21017    9.19476   22.07069
     305      444        1     1.91459   -7.39077   19.37178    6.37415
     306      444        1     2.04325   -5.81949   18.22142    1.60771
     307      444        1     2.02880   -2.74550   18.53847    6.19997
     308      444        1     1.91533   -2.83434   18.43735   16.13556
     309      444        1     2.03117   -4.40540   19.58891   11.36887
     310      444        1     2.02890   -7.47967   19.27119   15.96105
     311      444        1     1.91483    0.03695   22.63888   13.20167
     312      444        1     2.03046   -1.53453   23.78958   17.96807
     313      444        1     2.02780   -4.60874   23.47232   13.37610
     314      444        1     1.91486   -4.51967   23.57345    3.44034
     315      444        1     2.03152   -2.94844   22.42186    8.20711
     316      444        1     2.02847    0.12512   22.73987    3.61467
     317      444        2     2.12664   -4.77930   19.92524    8.20465
     318      444        2     2.11536   -0.96639   21.11888    6.05203
     319      444        2     1.91531   -6.34674   20.94543    3.10603
     320      444        2     2.09646   -5.44609   17.88363   17.96571
     321      444        2     2.11381   -3.51704   25.09301   15.81329
     322      444        2     1.91581   -3.87864   16.86475   12.86716
     323      444        2     2.12382   -2.57474   22.08542   11.37141
     324      444        2     2.11469   -6.38783   20.89180   13.52390
     325      444        2     1.91687   -1.00709   21.06570   16.46968
     326      444        2     2.12456   -1.90826   24.12729    1.61000
     327      444        2     2.11416   -3.83752   16.91791    3.76265
     328      444        2     1.91651   -3.47504   25.14610    6.70874
     329      444        3    -0.58428   -6.80058   19.07448    4.71714
     330      444        4    -0.99055   -6.13822   19.70126    7.53832
     331      444        3    -0.39718   -5.96679   20.31755    4.54691
     332      444        4    -1.02372    0.45849   20.68573    6.45585
     333      444        4    -0.95322   -5.31506   22.05992    2.97492
     334      444        4    -1.05348   -3.70154   19.00434    7.58816
     335      444        4    -1.01714   -0.89962   22.11234    4.88044
     336      444        4    -0.98801   -7.78809   21.45699    3.09107
     337      444        4    -1.05929   -1.79651   19.89319    5.60313
     338      444        4    -0.94586   -6.17928   19.89745    2.01280
     339      444        4    -1.05447   -4.37464   21.40657    8.02385
     340      444        4    -1.02746   -4.91719   19.57993    9.69326
     341      444        4    -1.04165   -1.61100   21.80065    7.26611
     342      444        3    -0.58442   -3.42430   18.73516   14.47855
     343      444        4    -0.97900   -4.08703   18.10818   17.29979
     344      444        3    -0.39796   -4.25889   17.49266   14.30799
     345      444        4    -1.02241   -1.66887   17.12245   16.21735
     346      444        4    -0.95176   -8.18352   24.15242   12.73590
     347      444        4    -1.04146   -6.52395   18.80420   17.34893
     348      444        4    -1.01684   -3.58313   24.09960   14.64152
     349      444        4    -0.98635   -5.71059   24.75564   12.85260
     350      444        4    -1.05972    0.58523   17.91730   15.36467
     351      444        4    -0.94370   -4.04583   17.91273   11.77387
     352      444        4    -1.04145   -9.12373   24.80451   17.78489
     353      444        4    -1.03711   -5.30764   18.23149    0.00000
     354      444        4    -1.03960   -2.87158   24.41135   17.02699
     355      444        3    -0.58581   -0.55310   22.93645   14.85868
     356      444        4    -0.99020   -1.21582   22.30966   12.03764
     357      444        3    -0.39631   -1.38735   21.69365   15.02889
     358      444        4    -1.02238   -7.81287   21.32438   13.11986
     359      444        4    -0.95275   -2.03802   19.95050   16.60071
     360      444        4    -1.05263   -3.65277   23.00587   11.98807
     361      444        4    -1.01857   -6.45438   19.89815   14.69538
     362      444        4    -0.98762    0.43464   20.55514   16.48449
     363      444        4    -1.05995   -5.55840   22.11796   13.97289
     364      444        4    -0.94330   -1.17505   22.11345   17.56306
     365      444        4    -1.05382   -2.97901   20.60397   11.55197
     366      444        4    -1.02501   -2.43707   22.43102    9.88284
     367      444        4    -1.03956   -5.74263   20.21027   12.31001
     368      444        3    -0.58483   -3.92933   23.27567    5.09721
     369      444        4    -0.99059   -3.26743   23.90319    2.27584
     370      444        3    -0.39583   -3.09497   24.51829    5.26784
     371      444        4    -1.02369   -5.68594   24.88759    3.35884
     372      444        4    -0.95286    0.83036   17.85796    6.84010
     373      444        4    -1.05298   -0.83095   23.20608    2.22680
     374      444        4    -1.01856   -3.77099   17.91113    4.93452
     375      444        4    -0.98812   -1.64286   17.25584    6.72340
     376      444        4    -1.06083   -7.94083   24.09434    4.21119
     377      444        4    -0.94581   -3.30820   24.09795    7.80191
     378      444        4    -1.05620    1.76994   17.20622    1.79107
     379      444        4    -1.02754   -2.04542   23.78239    0.12154
     380      444        4    -1.04013   -4.48223   17.59986    2.54869
     381      444        1     1.91459   -7.39213   19.36906   25.89615
     382      444        1     2.04325   -5.82086   18.21870   21.12971
     383      444        1     2.02880   -2.74686   18.53575   25.72197
     384      444        1     1.91533   -2.83571   18.43463   35.65756
     385      444        1     2.03117   -4.40677   19.58618   30.89087
     386      444        1     2.02890   -7.48103   19.26847   35.48305
     387      444        1     1.91483    0.03558   22.63616   32.72367
     388      444        1     2.03046   -1.53589   23.78686   37.49007
     389      444        1     2.02780   -4.61010   23.46960   32.89810
     390      444        1     1.91486   -4.52103   23.57072   22.96234
     391      444        1     2.03152   -2.94980   22.41913   27.72911
     392      444        1     2.02847    0.12375   22.73715   23.13667
     393      444        2     2.12664   -4.78066   19.92252   27.72665