Created on Tue Feb 06 14:50:10 2018 

        1984 atoms
        2336 bonds
        4096 angles
        4992 dihedrals
        3072 impropers

           6 atom types
           8 bond types
          15 angle types
           4 dihedral types
           1 improper types
           0.000000  39.184000 xlo xhi
           0.000000  27.777872 ylo yhi
           0.000000  26.563102 zlo zhi
          -6.490183  -6.605363  -8.080991 xy xz yz

Masses

    1    65.380000000 # Zn4+2
    2     1.007940000 # H_
    3    12.010700000 # C_R
    4    32.065000000 # S_R
    5    14.006700000 # N_R
    6    15.999400000 # O_2

Bond Coeffs

    1      104.409475        2.122938  # Zn4+2 O_2
    2      101.478011        2.216443  # Zn4+2 N_R
    3      357.440381        1.081418  # H_ C_R
    4      348.470281        1.701355  # C_R S_R
    5      391.669513        1.458000  # C_R C_R
    6      462.655054        1.379256  # C_R C_R
    7      714.557442        1.269010  # C_R O_2
    8      663.718927        1.345073  # C_R N_R

Angle Coeffs

    1       42.809957               1               4 # N_R Zn4+2 O_2
    2       43.207730               1               4 # O_2 Zn4+2 O_2
    3       94.924302              -1               3 # S_R C_R C_R
    4       83.791823              -1               3 # S_R C_R C_R
    5      101.626578              -1               3 # C_R C_R C_R
    6      256.805977              -1               3 # O_2 C_R O_2
    7      148.862838              -1               3 # C_R C_R O_2
    8       76.817955              -1               3 # H_ C_R C_R
    9      117.010657              -1               3 # C_R C_R C_R
   10      109.704024              -1               3 # N_R C_R H_
   11      165.695700              -1               3 # N_R C_R C_R
   12       84.267785              -1               3 # C_R S_R C_R
   13       21.958282              -1               3 # Zn4+2 N_R C_R
   14      132.654363              -1               3 # C_R N_R C_R
   15       28.000941              -1               3 # Zn4+2 O_2 C_R

Dihedral Coeffs

    1        1.775384              -1               2 # C_R C_R S_R C_R
    2        0.555556              -1               2 # C_R C_R C_R C_R
    3        1.497136              -1               2 # S_R C_R C_R C_R
    4        2.245703              -1               2 # C_R C_R O_2 Zn4+2

Improper Coeffs

    1        2.000000        1.000000       -1.000000        0.000000               0 # C_R C_R S_R C_R

Pair Coeffs

    1        0.124000        2.461553 # Zn4+2 Zn4+2
    2        0.044000        2.571134 # H_ H_
    3        0.105000        3.430851 # C_R C_R
    4        0.274000        3.594776 # S_R S_R
    5        0.069000        3.260689 # N_R N_R
    6        0.060000        3.118146 # O_2 O_2

Atoms

       1      444        1     0.92954    5.25223    0.34293   11.08704
       2      444        1     0.92954   15.04837    0.34282   11.08717
       3      444        1     0.92954    2.90348   -0.69568    9.67641
       4      444        1     0.92954   12.69958   -0.69596    9.67654
       5      444        1     0.92954   -2.00257    9.50590    2.19398
       6      444        1     0.92954    7.79355    9.50590    2.19398
       7      444        1     0.92954    0.34630   10.54363    3.60435
       8      444        1     0.92954   10.14234   10.54375    3.60448
       9      444        2     0.10831    0.12111    5.94297    9.83326
      10      444        2     0.10831    9.91727    5.94290    9.83286
      11      444        2     0.10831    3.86713    7.47604   12.42555
      12      444        2     0.10831   13.66341    7.47573   12.42555
      13      444        2     0.10831    0.39566    3.31400    9.65290
      14      444        2     0.10831   10.19168    3.31393    9.65263
      15      444        2     0.10831   -5.95550   10.10771   12.26551
      16      444        2     0.10831    3.84020   10.10778   12.26631
      17      444        2     0.10831   -1.96019    4.28776   13.03690
      18      444        2     0.10831    7.83307    4.28534   13.04633
      19      444        2     0.10831    0.27951    0.57570   12.81617
      20      444        2     0.10831   10.07973    0.57881   12.80302
      21      444        2     0.10831   -3.88532    3.07055   12.11835
      22      444        2     0.10831    5.90851    3.06870   12.12619
      23      444        2     0.10831   -1.76930   -0.48591   11.95061
      24      444        2     0.10831    8.03005   -0.48358   11.94065
      25      444        2     0.10831   -1.76746    2.16217    4.69928
      26      444        2     0.10831    8.02864    2.16228    4.69901
      27      444        2     0.10831    4.25782    0.16703    2.47900
      28      444        2     0.10831   14.05406    0.16741    2.47834
      29      444        2     0.10831   -2.03559    1.54545    7.26156
      30      444        2     0.10831    7.76061    1.54555    7.26129
      31      444        2     0.10831    4.31455    1.06931    0.00252
      32      444        2     0.10831   14.11049    1.06938    0.00266
      33      444        2     0.10831    0.27203   -1.40839    5.36256
      34      444        2     0.10831   10.06735   -1.40553    5.36269
      35      444        2     0.10831   -1.93755   -2.22257    9.00914
      36      444        2     0.10831    7.85965   -2.22642    9.00888
      37      444        2     0.10831    2.21861   -0.89338    6.76722
      38      444        2     0.10831   12.01405   -0.89111    6.76748
      39      444        2     0.10831    0.13389   -1.72168   10.24937
      40      444        2     0.10831    9.93101   -1.72512   10.24911
      41      444        2     0.10831    3.12803    3.90527    3.44895
      42      444        2     0.10831   12.92416    3.90537    3.44855
      43      444        2     0.10831   -0.61808    2.37232    0.85613
      44      444        2     0.10831    9.17808    2.37223    0.85613
      45      444        2     0.10831    2.85404    6.53429    3.62852
      46      444        2     0.10831   12.64999    6.53442    3.62825
      47      444        2     0.10831    9.20527   -0.25953    1.01564
      48      444        2     0.10831   19.00142   -0.25941    1.01551
      49      444        2     0.10831    5.21579    5.56630    0.22433
      50      444        2     0.10831   15.00927    5.56394    0.23322
      51      444        2     0.10831    2.96155    9.26661    0.49248
      52      444        2     0.10831   12.76159    9.26966    0.48000
      53      444        2     0.10831    7.13991    6.78235    1.14580
      54      444        2     0.10831   16.93384    6.78049    1.15337
      55      444        2     0.10831    5.01224   10.32991    1.35126
      56      444        2     0.10831   14.81137   10.33208    1.34210
      57      444        2     0.10831    5.01646    7.68738    8.58201
      58      444        2     0.10831   14.81252    7.68762    8.58187
      59      444        2     0.10831   -1.00875    9.68201   10.80189
      60      444        2     0.10831    8.78734    9.68212   10.80202
      61      444        2     0.10831    5.28495    8.30383    6.01920
      62      444        2     0.10831   15.08108    8.30380    6.01946
      63      444        2     0.10831   -1.06537    8.77975   13.27836
      64      444        2     0.10831    8.73062    8.77987   13.27850
      65      444        2     0.10831    2.97998   11.24873    7.91713
      66      444        2     0.10831   12.77655   11.24756    7.91713
      67      444        2     0.10831    5.18333   12.08362    4.27281
      68      444        2     0.10831   14.97902   12.08511    4.27294
      69      444        2     0.10831    1.03296   10.73417    6.51327
      70      444        2     0.10831   10.82940   10.73324    6.51327
      71      444        2     0.10831    3.11259   11.58002    3.03244
      72      444        2     0.10831   12.90850   11.58071    3.03258
      73      444        3    -0.11554    2.41141    7.43705   10.79392
      74      444        3    -0.11554   12.20722    7.43659   10.79498
      75      444        3    -0.11554    2.41319    3.55216   10.41420
      76      444        3    -0.11554   12.20898    3.55192   10.41460
      77      444        3     0.69611    2.95974    2.18095   10.44886
      78      444        3     0.69611   12.75560    2.18071   10.44913
      79      444        3    -0.12054    1.02879    5.39795   10.09026
      80      444        3    -0.12054   10.82483    5.39780   10.09026
      81      444        3     0.69611    5.17536   -2.56116   10.48021
      82      444        3     0.69611   14.97158   -2.56128   10.48047
      83      444        3    -0.12054    3.27783    8.03986   11.70477
      84      444        3    -0.12054   13.07429    8.03994   11.70370
      85      444        3    -0.12054    1.16800    3.99666   10.00048
      86      444        3    -0.12054   10.96394    3.99653   10.00048
      87      444        3     0.09676   -0.62685    2.55620   13.01512
      88      444        3     0.09676    9.16994    2.55663   13.01326
      89      444        3    -0.11554    2.36108    9.93199   10.69059
      90      444        3    -0.11554   12.15723    9.93181   10.69085
      91      444        3    -0.11554    2.17303    6.02729   10.57889
      92      444        3    -0.11554   11.96899    6.02711   10.57902
      93      444        3    -0.12054    3.25806    9.44727   11.62933
      94      444        3    -0.12054   13.05432    9.44706   11.62933
      95      444        3    -0.12054   -1.84001    3.23322   12.80474
      96      444        3    -0.12054    7.95495    3.23218   12.80886
      97      444        3    -0.12054   -0.61197    1.18629   12.69464
      98      444        3    -0.12054    9.18650    1.18798   12.68747
      99      444        3     0.17076   -2.94141    2.55845   12.29712
     100      444        3     0.17076    6.85358    2.55743   12.30111
     101      444        3     0.17076   -1.75581    0.57516   12.19831
     102      444        3     0.17076    8.04238    0.57661   12.19207
     103      444        3    -0.11554    5.73349    1.69703    2.99167
     104      444        3    -0.11554   15.52972    1.69694    2.99180
     105      444        3    -0.11554    5.73876    0.89970    6.81211
     106      444        3    -0.11554   15.53480    0.89953    6.81264
     107      444        3     0.69611    5.19591    0.45022    8.10958
     108      444        3     0.69611   14.99195    0.45018    8.10985
     109      444        3    -0.12054    7.12009    1.75893    5.14501
     110      444        3    -0.12054   16.91759    1.76046    5.13996
     111      444        3     0.69611    2.95751   -0.94353   12.63341
     112      444        3     0.69611   12.75352   -0.94389   12.63394
     113      444        3    -0.12054    4.86006    1.01146    2.14869
     114      444        3    -0.12054   14.65616    1.01145    2.14895
     115      444        3    -0.12054    6.98453    1.42394    6.50876
     116      444        3    -0.12054   16.78066    1.42387    6.50902
     117      444        3     0.09676   -1.04627   -1.86603    7.04374
     118      444        3     0.09676    8.74994   -1.86616    7.04360
     119      444        3    -0.11554    5.80829    2.51018    0.63048
     120      444        3    -0.11554   15.60449    2.50996    0.63061
     121      444        3    -0.11554    5.97170    1.48687    4.40204
     122      444        3    -0.11554   15.76792    1.48684    4.40217
     123      444        3    -0.12054    4.89526    1.48470    0.82173
     124      444        3    -0.12054   14.69161    1.48500    0.82080
     125      444        3    -0.12054    0.16306   -1.48230    6.44076
     126      444        3    -0.12054    9.95888   -1.48115    6.44076
     127      444        3    -0.12054   -1.04802   -1.94584    8.44826
     128      444        3    -0.12054    8.74874   -1.94817    8.44813
     129      444        3     0.17076    1.27684   -1.20046    7.21892
     130      444        3     0.17076   11.07270   -1.19899    7.21852
     131      444        3     0.17076    0.10752   -1.65814    9.16188
     132      444        3     0.17076    9.90418   -1.66003    9.16175
     133      444        3    -0.11554    0.83812    2.41174    2.48670
     134      444        3    -0.11554   10.63412    2.41173    2.48684
     135      444        3    -0.11554    0.83694    6.29650    2.86589
     136      444        3    -0.11554   10.63269    6.29646    2.86629
     137      444        3     0.69611    0.29051    7.66775    2.83149
     138      444        3     0.69611   10.08630    7.66772    2.83163
     139      444        3    -0.12054    2.22062    4.45043    3.19129
     140      444        3    -0.12054   12.01687    4.45077    3.19023
     141      444        3     0.69611   -1.92586   12.40979    2.80108
     142      444        3     0.69611    7.87020   12.40973    2.80161
     143      444        3    -0.12054   -0.02860    1.80857    1.57692
     144      444        3    -0.12054    9.76758    1.80865    1.57652
     145      444        3    -0.12054    2.08179    5.85176    3.28054
     146      444        3    -0.12054   11.87768    5.85181    3.28054
     147      444        3     0.09676    3.87518    7.29189    0.26962
     148      444        3     0.09676   13.67190    7.29225    0.26802
     149      444        3    -0.11554    0.88828   -0.08345    2.59123
     150      444        3    -0.11554   10.68437   -0.08345    2.59136
     151      444        3    -0.11554    1.07644    3.82123    2.70240
     152      444        3    -0.11554   10.87241    3.82126    2.70240
     153      444        3    -0.12054   -0.00868    0.40128    1.65209
     154      444        3    -0.12054    9.78743    0.40121    1.65222
     155      444        3    -0.12054    5.09209    6.61791    0.46764
     156      444        3    -0.12054   14.88716    6.61689    0.47150
     157      444        3    -0.12054    3.85768    8.66022    0.59767
     158      444        3    -0.12054   13.65508    8.66067    0.59475
     159      444        3     0.17076    6.19349    7.29264    0.97540
     160      444        3     0.17076   15.98854    7.29162    0.97925
     161      444        3     0.17076    5.00119    9.27069    1.09573
     162      444        3     0.17076   14.79948    9.27232    1.08909
     163      444        3    -0.11554   -2.48452    8.15209   10.28935
     164      444        3    -0.11554    7.31167    8.15208   10.28948
     165      444        3    -0.11554   -2.48901    8.94879    6.46838
     166      444        3    -0.11554    7.30699    8.94894    6.46851
     167      444        3     0.69611   -1.94606    9.39791    5.17130
     168      444        3     0.69611    7.84984    9.39816    5.17144
     169      444        3    -0.12054   -3.87099    8.09039    8.13588
     170      444        3    -0.12054    5.92516    8.09031    8.13601
     171      444        3     0.69611    0.29159   10.79281    0.64708
     172      444        3     0.69611   10.08772   10.79273    0.64721
     173      444        3    -0.12054   -1.61103    8.83764   11.13220
     174      444        3    -0.12054    8.18509    8.83770   11.13233
     175      444        3    -0.12054   -3.73513    8.42510    6.77200
     176      444        3    -0.12054    6.06388    8.42870    6.76031
     177      444        3     0.09676    4.29515   11.71609    6.23755
     178      444        3     0.09676   14.09115   11.71655    6.23768
     179      444        3    -0.11554   -2.55940    7.33912   12.65054
     180      444        3    -0.11554    7.23677    7.33902   12.65068
     181      444        3    -0.11554   -2.72256    8.36209    8.87885
     182      444        3    -0.11554    7.07359    8.36212    8.87898
     183      444        3    -0.12054   -1.64627    8.36444   12.45929
     184      444        3    -0.12054    8.14983    8.36446   12.45942
     185      444        3    -0.12054    3.08725   11.32725    6.84026
     186      444        3    -0.12054   12.88362   11.32662    6.84026
     187      444        3    -0.12054    4.29530   11.80156    4.83329
     188      444        3    -0.12054   14.09123   11.80216    4.83342
     189      444        3     0.17076    1.97366   11.04494    6.06197
     190      444        3     0.17076   11.76999   11.04473    6.06170
     191      444        3     0.17076    3.14012   11.51250    4.11967
     192      444        3     0.17076   12.93604   11.51319    4.11980
     193      444        4     0.12231    1.58049    8.63306    9.84867
     194      444        4     0.12231   11.37645    8.63292    9.84907
     195      444        4     0.12231    3.41974    4.86625   10.91212
     196      444        4     0.12231   13.21564    4.86615   10.91212
     197      444        4     0.12231    6.58491    2.93512    2.12106
     198      444        4     0.12231   16.38132    2.93486    2.12106
     199      444        4     0.12231    4.72630    0.82449    5.41329
     200      444        4     0.12231   14.52246    0.82446    5.41343
     201      444        4     0.12231    1.66886    1.21559    3.43288
     202      444        4     0.12231   11.46515    1.21597    3.43195
     203      444        4     0.12231   -0.16974    4.98250    2.36797
     204      444        4     0.12231    9.62599    4.98242    2.36850
     205      444        4     0.12231   -3.33616    6.91426   11.15996
     206      444        4     0.12231    6.46015    6.91408   11.16009
     207      444        4     0.12231   -1.47672    9.02367    7.86759
     208      444        4     0.12231    8.31928    9.02391    7.86773
     209      444        5    -0.30873   -2.91114    1.24298   11.99205
     210      444        5    -0.30873    6.88528    1.24310   11.99138
     211      444        5    -0.30873    1.26027   -1.28386    8.56660
     212      444        5    -0.30873   11.05657   -1.28455    8.56660
     213      444        5    -0.30873    6.16015    8.60565    1.29044
     214      444        5    -0.30873   15.95661    8.60576    1.28977
     215      444        5    -0.30873    1.98882   11.13327    4.71455
     216      444        5    -0.30873   11.78532   11.13325    4.71362
     217      444        6    -0.59424    5.82498   -1.65512   11.10656
     218      444        6    -0.59424   15.62137   -1.65526   11.10670
     219      444        6    -0.59424    4.18171    2.07960   10.82274
     220      444        6    -0.59424   13.97764    2.07941   10.82274
     221      444        6    -0.59424    2.19550    1.22490   10.10686
     222      444        6    -0.59424   11.99141    1.22467   10.10699
     223      444        6    -0.59424    4.17491   -2.37860    9.70496
     224      444        6    -0.59424   13.97099   -2.37874    9.70549
     225      444        6    -0.59424    2.31821   -1.29078   11.58151
     226      444        6    -0.59424   12.11374   -1.29118   11.58297
     227      444        6    -0.59424    3.97629    0.05580    8.09325
     228      444        6    -0.59424   13.77237    0.05570    8.09338
     229      444        6    -0.59424    5.96057    0.49094    9.12416
     230      444        6    -0.59424   15.75663    0.49090    9.12429
     231      444        6    -0.59424    3.96407   -0.15639   12.68455
     232      444        6    -0.59424   13.76036   -0.15686   12.68455
     233      444        6    -0.59424   -2.57565   11.50387    2.17485
     234      444        6    -0.59424    7.22053   11.50382    2.17512
     235      444        6    -0.59424   -0.93149    7.76937    2.45802
     236      444        6    -0.59424    8.86431    7.76930    2.45802
     237      444        6    -0.59424    1.05492    8.62357    3.17389
     238      444        6    -0.59424   10.85066    8.62359    3.17403
     239      444        6    -0.59424   -0.92549   12.22695    3.57659
     240      444        6    -0.59424    8.87064   12.22704    3.57685
     241      444        6    -0.59424    0.93140   11.13987    1.69818
     242      444        6    -0.59424   10.72735   11.14001    1.69831
     243      444        6    -0.59424   -0.72636    9.79222    5.18764
     244      444        6    -0.59424    9.06958    9.79231    5.18777
     245      444        6    -0.59424   -2.71076    9.35768    4.15673
     246      444        6    -0.59424    7.08518    9.35776    4.15686
     247      444        6    -0.59424   -0.71519   10.00578    0.59634
     248      444        6    -0.59424    9.08106   10.00548    0.59647
     249      444        1     0.92954    1.94954   -3.69756   24.36859
     250      444        1     0.92954   11.74568   -3.69767   24.36872
     251      444        1     0.92954   -0.39920   -4.73618   22.95796
     252      444        1     0.92954    9.39690   -4.73645   22.95809
     253      444        1     0.92954   -5.30525    5.46541   15.47553
     254      444        1     0.92954    4.49087    5.46541   15.47553
     255      444        1     0.92954   -2.95639    6.50313   16.88590
     256      444        1     0.92954    6.83966    6.50326   16.88603
     257      444        2     0.10831   -3.18158    1.90248   23.11481
     258      444        2     0.10831    6.61459    1.90240   23.11441
     259      444        2     0.10831    0.56444    3.43554   25.70711
     260      444        2     0.10831   10.36073    3.43524   25.70711
     261      444        2     0.10831   -2.90702   -0.72650   22.93445
     262      444        2     0.10831    6.88900   -0.72657   22.93418
     263      444        2     0.10831   -9.25819    6.06721   25.54706
     264      444        2     0.10831    0.53752    6.06729   25.54786
     265      444        2     0.10831   -5.26287    0.24727   26.31846
     266      444        2     0.10831    4.53039    0.24484   26.32789
     267      444        2     0.10831   -3.02317   -3.46480   26.09772
     268      444        2     0.10831    6.77705   -3.46169   26.08457
     269      444        2     0.10831   -7.18800   -0.96995   25.39990
     270      444        2     0.10831    2.60583   -0.97179   25.40774
     271      444        2     0.10831   -5.07198   -4.52640   25.23216
     272      444        2     0.10831    4.72737   -4.52408   25.22220
     273      444        2     0.10831   -5.07014   -1.87833   17.98083
     274      444        2     0.10831    4.72596   -1.87822   17.98056
     275      444        2     0.10831    0.95513   -3.87347   15.76055
     276      444        2     0.10831   10.75138   -3.87309   15.75989
     277      444        2     0.10831   -5.33827   -2.49504   20.54311
     278      444        2     0.10831    4.45793   -2.49495   20.54284
     279      444        2     0.10831    1.01186   -2.97119   13.28407
     280      444        2     0.10831   10.80780   -2.97112   13.28421
     281      444        2     0.10831   -3.03065   -5.44888   18.64411
     282      444        2     0.10831    6.76467   -5.44602   18.64424
     283      444        2     0.10831   -5.24023   -6.26306   22.29069
     284      444        2     0.10831    4.55697   -6.26691   22.29043
     285      444        2     0.10831   -1.08408   -4.93387   20.04877
     286      444        2     0.10831    8.71137   -4.93160   20.04903
     287      444        2     0.10831   -3.16879   -5.76218   23.53092
     288      444        2     0.10831    6.62833   -5.76561   23.53066
     289      444        2     0.10831   -0.17465   -0.13523   16.73050
     290      444        2     0.10831    9.62147   -0.13512   16.73011
     291      444        2     0.10831   -3.92076   -1.66817   14.13768
     292      444        2     0.10831    5.87540   -1.66827   14.13768
     293      444        2     0.10831   -0.44865    2.49379   16.91007
     294      444        2     0.10831    9.34731    2.49393   16.90980
     295      444        2     0.10831    5.90259   -4.30003   14.29719
     296      444        2     0.10831   15.69874   -4.29990   14.29706
     297      444        2     0.10831    1.91311    1.52581   13.50588
     298      444        2     0.10831   11.70658    1.52345   13.51477
     299      444        2     0.10831   -0.34114    5.22612   13.77403
     300      444        2     0.10831    9.45891    5.22917   13.76155
     301      444        2     0.10831    3.83723    2.74186   14.42735
     302      444        2     0.10831   13.63116    2.74000   14.43492
     303      444        2     0.10831    1.70956    6.28942   14.63282
     304      444        2     0.10831   11.50869    6.29158   14.62365
     305      444        2     0.10831    1.71377    3.64689   21.86356
     306      444        2     0.10831   11.50984    3.64712   21.86342
     307      444        2     0.10831   -4.31143    5.64151   24.08344
     308      444        2     0.10831    5.48466    5.64162   24.08357
     309      444        2     0.10831    1.98227    4.26333   19.30075
     310      444        2     0.10831   11.77840    4.26331   19.30102
     311      444        2     0.10831   -4.36805    4.73926   26.55991
     312      444        2     0.10831    5.42794    4.73937   26.56005
     313      444        2     0.10831   -0.32270    7.20823   21.19868
     314      444        2     0.10831    9.47387    7.20707   21.19868
     315      444        2     0.10831    1.88065    8.04313   17.55436
     316      444        2     0.10831   11.67634    8.04461   17.55449
     317      444        2     0.10831   -2.26972    6.69367   19.79482
     318      444        2     0.10831    7.52671    6.69274   19.79482
     319      444        2     0.10831   -0.19009    7.53952   16.31399
     320      444        2     0.10831    9.60582    7.54022   16.31413
     321      444        3    -0.11554   -0.89127    3.39655   24.07547
     322      444        3    -0.11554    8.90454    3.39609   24.07653
     323      444        3    -0.11554   -0.88949   -0.48833   23.69575
     324      444        3    -0.11554    8.90630   -0.48858   23.69615
     325      444        3     0.69611   -0.34294   -1.85955   23.73041
     326      444        3     0.69611    9.45291   -1.85978   23.73068
     327      444        3    -0.12054   -2.27389    1.35746   23.37181
     328      444        3    -0.12054    7.52215    1.35731   23.37181
     329      444        3     0.69611    1.87268   -6.60166   23.76176
     330      444        3     0.69611   11.66890   -6.60178   23.76202
     331      444        3    -0.12054   -0.02485    3.99936   24.98632
     332      444        3    -0.12054    9.77160    3.99945   24.98525
     333      444        3    -0.12054   -2.13468   -0.04383   23.28203
     334      444        3    -0.12054    7.66125   -0.04397   23.28203
     335      444        3     0.09676   -3.92953   -1.48429   26.29667
     336      444        3     0.09676    5.86726   -1.48386   26.29481
     337      444        3    -0.11554   -0.94160    5.89150   23.97214
     338      444        3    -0.11554    8.85455    5.89132   23.97240
     339      444        3    -0.11554   -1.12965    1.98680   23.86044
     340      444        3    -0.11554    8.66631    1.98662   23.86057
     341      444        3    -0.12054   -0.04462    5.40677   24.91088
     342      444        3    -0.12054    9.75164    5.40657   24.91088
     343      444        3    -0.12054   -5.14269   -0.80727   26.08629
     344      444        3    -0.12054    4.65227   -0.80832   26.09041
     345      444        3    -0.12054   -3.91465   -2.85420   25.97619
     346      444        3    -0.12054    5.88381   -2.85252   25.96902
     347      444        3     0.17076   -6.24409   -1.48204   25.57867
     348      444        3     0.17076    3.55089   -1.48306   25.58266
     349      444        3     0.17076   -5.05849   -3.46534   25.47986
     350      444        3     0.17076    4.73970   -3.46388   25.47362
     351      444        3    -0.11554    2.43080   -2.34347   16.27322
     352      444        3    -0.11554   12.22704   -2.34355   16.27335
     353      444        3    -0.11554    2.43608   -3.14080   20.09366
     354      444        3    -0.11554   12.23212   -3.14096   20.09419
     355      444        3     0.69611    1.89323   -3.59028   21.39113
     356      444        3     0.69611   11.68927   -3.59032   21.39140
     357      444        3    -0.12054    3.81740   -2.28157   18.42656
     358      444        3    -0.12054   13.61491   -2.28003   18.42151
     359      444        3     0.69611   -0.34518   -4.98403   25.91496
     360      444        3     0.69611    9.45084   -4.98438   25.91549
     361      444        3    -0.12054    1.55738   -3.02904   15.43024
     362      444        3    -0.12054   11.35348   -3.02905   15.43051
     363      444        3    -0.12054    3.68185   -2.61655   19.79031
     364      444        3    -0.12054   13.47798   -2.61662   19.79057
     365      444        3     0.09676   -4.34895   -5.90653   20.32529
     366      444        3     0.09676    5.44725   -5.90665   20.32516
     367      444        3    -0.11554    2.50561   -1.53032   13.91203
     368      444        3    -0.11554   12.30181   -1.53054   13.91216
     369      444        3    -0.11554    2.66902   -2.55363   17.68359
     370      444        3    -0.11554   12.46524   -2.55365   17.68372
     371      444        3    -0.12054    1.59258   -2.55579   14.10328
     372      444        3    -0.12054   11.38893   -2.55550   14.10235
     373      444        3    -0.12054   -3.13963   -5.52279   19.72231
     374      444        3    -0.12054    6.65620   -5.52164   19.72231
     375      444        3    -0.12054   -4.35071   -5.98633   21.72981
     376      444        3    -0.12054    5.44606   -5.98867   21.72968
     377      444        3     0.17076   -2.02584   -5.24096   20.50047