Created on Tue Feb 06 14:41:48 2018 

        2464 atoms
        2816 bonds
        4896 angles
        6528 dihedrals
        3360 impropers

           7 atom types
          10 bond types
          14 angle types
           6 dihedral types
           1 improper types
           0.000000  41.042000 xlo xhi
           0.000000  33.231991 ylo yhi
           0.000000  38.780155 zlo zhi
          -0.023780  -7.996403   0.018466 xy xz yz

Masses

    1    65.380000000 # Zn4+2
    2     1.007940000 # H_
    3    12.010700000 # C_R
    4    12.010700000 # C_3
    5    35.453000000 # Cl
    6    15.999400000 # O_R
    7    15.999400000 # O_3

Bond Coeffs

    1      127.647979        1.985391  # Zn4+2 O_R
    2      357.440381        1.081418  # H_ C_R
    3      331.069389        1.109401  # H_ C_3
    4      646.680887        1.311940  # C_R O_R
    5      391.669513        1.458000  # C_R C_R
    6      462.655054        1.379256  # C_R C_R
    7      277.880341        1.750578  # C_R Cl
    8      572.510195        1.366311  # C_R O_3
    9      349.795899        1.514000  # C_3 C_3
   10      539.248552        1.393845  # C_3 O_3

Angle Coeffs

    1              cosine/periodic       60.397389               1               4 # O_R Zn4+2 O_R
    2              cosine/periodic      137.761490              -1               3 # O_R C_R C_R
    3              cosine/periodic      217.450257              -1               3 # O_R C_R O_R
    4              cosine/periodic      101.626578              -1               3 # C_R C_R C_R
    5              cosine/periodic      117.010657              -1               3 # C_R C_R C_R
    6              cosine/periodic       76.817955              -1               3 # H_ C_R C_R
    7              cosine/periodic       76.105427              -1               3 # C_R C_R Cl
    8              cosine/periodic      144.104200              -1               3 # C_R C_R O_3
    9                      fourier      137.437967        0.343737        0.374972        0.281246 # C_3 C_3 O_3
   10                      fourier      107.207104        0.343737        0.374972        0.281246 # H_ C_3 O_3
   11                      fourier       69.847816        0.343737        0.374972        0.281246 # C_3 C_3 H_
   12                      fourier       61.342703        0.343737        0.374972        0.281246 # H_ C_3 H_
   13              cosine/periodic       39.831479              -1               3 # Zn4+2 O_R C_R
   14                      fourier      168.527890        0.300235        0.267331        0.266745 # C_R O_3 C_3

Dihedral Coeffs

    1        2.245703              -1               2 # C_R C_R O_R Zn4+2
    2        0.555556              -1               2 # O_R C_R C_R C_R
    3        1.497136              -1               2 # C_R C_R C_R C_R
    4        0.833333               1               2 # C_R C_R O_3 C_3
    5        0.066219               1               3 # H_ C_3 C_3 H_
    6        0.128665               1               2 # C_3 C_3 O_3 C_R

Improper Coeffs

    1        2.000000        1.000000       -1.000000        0.000000               0 # O_R C_R O_R C_R

Pair Coeffs

    1        0.124000        2.461553 # Zn4+2 Zn4+2
    2        0.044000        2.571134 # H_ H_
    3        0.105000        3.430851 # C_R C_R
    4        0.105000        3.430851 # C_3 C_3
    5        0.227000        3.516377 # Cl Cl
    6        0.060000        3.118146 # O_R O_R
    7        0.060000        3.118146 # O_3 O_3

Atoms

       1      444        1     1.02100    3.78432    5.65462    7.36551
       2      444        1     1.02100   14.04474    5.65477    7.36590
       3      444        1     1.18501    5.53656    6.97993    9.32081
       4      444        1     1.18501   15.79714    6.98007    9.32081
       5      444        1     1.02100    2.46375   13.96334   12.02224
       6      444        1     1.02100   12.72411   13.96343   12.02282
       7      444        1     1.18501    0.71164   15.28661   10.06578
       8      444        1     1.18501   10.97194   15.28674   10.06636
       9      444        2     0.10530    2.93832    0.98191   13.85596
      10      444        2     0.10530   13.19874    0.98189   13.85596
      11      444        2     0.10530    4.67717    4.85523   13.02257
      12      444        2     0.10530   14.93847    4.85486   13.02276
      13      444        2     0.10530    6.45818    3.31987   13.73574
      14      444        2     0.10530   16.71903    3.31935   13.73612
      15      444        2     0.10530   -1.44710    4.48341   17.13676
      16      444        2     0.10530    8.81348    4.48341   17.13617
      17      444        2     0.10530   -3.41648    4.24503   18.61137
      18      444        2     0.10530    6.84427    4.24496   18.61098
      19      444        2     0.10530    0.40219    3.07290   16.92618
      20      444        2     0.10530   10.66265    3.07243   16.92560
      21      444        2     0.10530    1.08672    1.46399   17.28005
      22      444        2     0.10530   11.34726    1.46367   17.28024
      23      444        2     0.10530   -0.28385    3.29785   19.35013
      24      444        2     0.10530    9.97645    3.29787   19.34994
      25      444        2     0.10530   -1.03548    1.88360   18.57821
      26      444        2     0.10530    9.22498    1.88336   18.57821
      27      444        2     0.10530    4.41557    1.66117    0.00000
      28      444        2     0.10530   14.67605    1.66132    0.00000
      29      444        2     0.10530    2.02036    2.73633   15.51245
      30      444        2     0.10530   12.28092    2.73620   15.51245
      31      444        2     0.10530    4.09862    1.18338   18.82873
      32      444        2     0.10530   14.35875    1.18330   18.82873
      33      444        2     0.10530    7.92376   15.96398    1.10310
      34      444        2     0.10530   18.18389   15.96399    1.10330
      35      444        2     0.10530    8.54308    2.15866    4.30343
      36      444        2     0.10530   18.80352    2.15882    4.30266
      37      444        2     0.10530    8.97855    6.39930    2.12845
      38      444        2     0.10530   19.23887    6.39933    2.12845
      39      444        2     0.10530    9.95006    7.49844    0.29124
      40      444        2     0.10530   20.21038    7.49842    0.29124
      41      444        2     0.10530    8.21010    7.78560    0.58752
      42      444        2     0.10530   18.47038    7.78552    0.58733
      43      444        2     0.10530    3.85985    8.29873   17.55578
      44      444        2     0.10530   14.12025    8.29864   17.55578
      45      444        2     0.10530    5.15188    9.34355   18.20903
      46      444        2     0.10530   15.41218    9.34352   18.20903
      47      444        2     0.10530    5.57099    7.93351   17.21412
      48      444        2     0.10530   15.83149    7.93356   17.21412
      49      444        2     0.10530    0.83102    4.68196    4.09596
      50      444        2     0.10530   11.09170    4.68200    4.09615
      51      444        2     0.10530   -0.85896    5.95113    7.83379
      52      444        2     0.10530    9.40136    5.95074    7.83398
      53      444        2     0.10530    6.80554    4.81467    4.58575
      54      444        2     0.10530   17.06590    4.81511    4.58575
      55      444        2     0.10530    3.31617    9.28721    5.53509
      56      444        2     0.10530   13.57647    9.28739    5.53587
      57      444        2     0.10530    1.57332   13.15936    6.36537
      58      444        2     0.10530   11.83327   13.15936    6.36615
      59      444        2     0.10530   -0.20599   11.62337    5.65395
      60      444        2     0.10530   10.05412   11.62322    5.65434
      61      444        2     0.10530    7.69832   12.78386    2.25332
      62      444        2     0.10530   17.95904   12.78452    2.25313
      63      444        2     0.10530    9.66732   12.54455    0.77851
      64      444        2     0.10530   19.92792   12.54516    0.77812
      65      444        2     0.10530    5.84928   11.37416    2.46351
      66      444        2     0.10530   16.10974   11.37424    2.46409
      67      444        2     0.10530    5.16466    9.76490    2.11139
      68      444        2     0.10530   15.42527    9.76493    2.11158
      69      444        2     0.10530    6.54391   11.59645    0.00000
      70      444        2     0.10530   16.80454   11.59640    0.00000
      71      444        2     0.10530    7.28714   10.18290    0.81322
      72      444        2     0.10530   17.54758   10.18284    0.81380
      73      444        2     0.10530    1.89512    9.97786   19.10621
      74      444        2     0.10530   12.15556    9.97785   19.10679
      75      444        2     0.10530    4.23141   11.03882    3.87705
      76      444        2     0.10530   14.49175   11.03904    3.87782
      77      444        2     0.10530    2.15520    9.48388    0.56231
      78      444        2     0.10530   12.41609    9.48353    0.56231
      79      444        2     0.10530   -1.67905    7.66654   18.28930
      80      444        2     0.10530    8.58178    7.66624   18.28969
      81      444        2     0.10530   -2.28891   10.47390   15.08684
      82      444        2     0.10530    7.97098   10.47357   15.08742
      83      444        2     0.10530   -2.73133   14.71548   17.25891
      84      444        2     0.10530    7.52866   14.71510   17.25950
      85      444        2     0.10530   -3.70458   15.81409   19.09535
      86      444        2     0.10530    6.55576   15.81380   19.09651
      87      444        2     0.10530   -1.96526   16.10463   18.79946
      88      444        2     0.10530    8.29518   16.10419   18.80004
      89      444        2     0.10530    2.38374   16.60080    1.83120
      90      444        2     0.10530   12.64443   16.60024    1.83178
      91      444        2     0.10530    1.10214    1.02721    1.17717
      92      444        2     0.10530   11.36301    1.02678    1.17698
      93      444        2     0.10530    0.67308   16.23270    2.17266
      94      444        2     0.10530   10.93377   16.23225    2.17324
      95      444        2     0.10530    5.41781   12.99720   15.29392
      96      444        2     0.10530   15.67889   12.99772   15.29373
      97      444        2     0.10530    7.10709   14.25885   11.55319
      98      444        2     0.10530   17.37066   14.25841   11.53710
      99      444        2     0.10530   -0.55600   13.12476   14.79948
     100      444        2     0.10530    9.70400   13.12494   14.80064
     101      444        3     0.73104    4.25546    4.82410   10.32716
     102      444        3     0.73104   14.51678    4.82394   10.32716
     103      444        3    -0.03789    3.86171    3.80263   11.33195
     104      444        3    -0.03789   14.12299    3.80242   11.33214
     105      444        3     0.09571    3.17517    2.66471   10.96005
     106      444        3     0.09571   13.43633    2.66461   10.96005
     107      444        3    -0.03789    2.82686    1.64074   11.81166
     108      444        3    -0.03789   13.08773    1.64072   11.81166
     109      444        3    -0.12282    3.18051    1.79133   13.16683
     110      444        3    -0.12282   13.44122    1.79126   13.16683
     111      444        3    -0.03789    3.82883    2.94722   13.62502
     112      444        3    -0.03789   14.08966    2.94702   13.62521
     113      444        3    -0.12282    4.17549    3.94380   12.69720
     114      444        3    -0.12282   14.43671    3.94354   12.69720
     115      444        3     0.73104    2.13836    0.40951   11.35677
     116      444        3     0.73104   12.39894    0.40961   11.35716
     117      444        3    -0.03789    4.07254    3.12349   15.07831
     118      444        3    -0.03789   14.33318    3.12326   15.07850
     119      444        3    -0.03789    5.35494    3.46707   15.60901
     120      444        3    -0.03789   15.61545    3.46682   15.60979
     121      444        3    -0.12282    6.51828    3.54964   14.79715
     122      444        3    -0.12282   16.77898    3.54928   14.79754
     123      444        3     0.14211   -2.53189    3.90368   15.35093
     124      444        3     0.14211    7.72844    3.90394   15.35054
     125      444        3    -0.12282   -2.41002    4.18087   16.73015
     126      444        3    -0.12282    7.85048    4.18096   16.72976
     127      444        3    -0.12282   -3.51314    4.05975   17.54259
     128      444        3    -0.12282    6.74747    4.05980   17.54220
     129      444        3    -0.03789    5.47196    3.69967   17.02526
     130      444        3    -0.03789   15.73240    3.69952   17.02546
     131      444        3    -0.03789    4.34261    3.55756   17.88289
     132      444        3    -0.03789   14.60299    3.55746   17.88289
     133      444        3     0.24725    3.11929    3.17734   17.32891
     134      444        3     0.24725   13.37961    3.17722   17.32930
     135      444        4     0.18560    0.85089    2.44974   17.71671
     136      444        4     0.18560   11.11131    2.44949   17.71671
     137      444        4    -0.37784   -0.07966    2.31600   18.90280
     138      444        4    -0.37784   10.18076    2.31593   18.90280
     139      444        3    -0.12282    2.99484    2.96784   15.93787
     140      444        3    -0.12282   13.25539    2.96768   15.93787
     141      444        3    -0.03789    4.45838    3.81677   19.34121
     142      444        3    -0.03789   14.71862    3.81673   19.34121
     143      444        3    -0.03789    8.38585    2.74852    0.90067
     144      444        3    -0.03789   18.64602    2.74850    0.90067
     145      444        3    -0.12282    8.18488    1.39758    0.50085
     146      444        3    -0.12282   18.44503    1.39756    0.50085
     147      444        3    -0.12282    8.09437    0.37796    1.42110
     148      444        3    -0.12282   18.35453    0.37799    1.42129
     149      444        3     0.14211    8.21939    0.66684    2.79973
     150      444        3     0.14211   18.47958    0.66692    2.79993
     151      444        3    -0.12282    8.43706    1.95347    3.23969
     152      444        3    -0.12282   18.69726    1.95359    3.23989
     153      444        3    -0.03789    8.52211    3.02190    2.30703
     154      444        3    -0.03789   18.78230    3.02195    2.30703
     155      444        3    -0.03789    8.75090    4.36564    2.72431
     156      444        3    -0.03789   19.01112    4.36570    2.72431
     157      444        3    -0.12282    8.81264    5.38038    1.78447
     158      444        3    -0.12282   19.07291    5.38041    1.78447
     159      444        3     0.24725    8.64721    5.11500    0.40486
     160      444        3     0.24725   18.90751    5.11496    0.40486
     161      444        4     0.18560    4.94755    7.46022   19.22701
     162      444        4     0.18560   15.20789    7.46017   19.22701
     163      444        4    -0.37784    4.87442    8.30685   17.97518
     164      444        4    -0.37784   15.13485    8.30682   17.97499
     165      444        3    -0.03789    8.92563    4.72174    4.16130
     166      444        3    -0.03789   19.18596    4.72190    4.16111
     167      444        3    -0.12282   -0.05259    4.88327    4.70112
     168      444        3    -0.12282   10.20803    4.88320    4.70132
     169      444        3    -0.03789    0.11741    5.31374    6.02392
     170      444        3    -0.03789   10.37791    5.31351    6.02411
     171      444        3    -0.12282   -0.99956    5.59400    6.81581
     172      444        3    -0.12282    9.26084    5.59361    6.81600
     173      444        3    -0.03789    7.97687    5.40037    6.29712
     174      444        3    -0.03789   18.23737    5.40097    6.29693
     175      444        3    -0.12282    7.81298    4.95463    4.97646
     176      444        3    -0.12282   18.07336    4.95500    4.97646
     177      444        3     0.73104    1.48372    5.48295    6.59398
     178      444        3     0.73104   11.74416    5.48281    6.59437
     179      444        3     0.73104    6.77011    5.69218    7.12081
     180      444        3     0.73104   17.03065    5.69312    7.12062
     181      444        3     0.73104    1.99610   13.13140    9.06060
     182      444        3     0.73104   12.25598   13.13133    9.06118
     183      444        3    -0.03789    2.39057   12.10937    8.05638
     184      444        3    -0.03789   12.65048   12.10935    8.05716
     185      444        3     0.09571    3.07891   10.97276    8.42925
     186      444        3     0.09571   13.33884   10.97278    8.43003
     187      444        3    -0.03789    3.42832    9.94845    7.57861
     188      444        3    -0.03789   13.68837    9.94855    7.57939
     189      444        3    -0.12282    3.07375   10.09706    6.22228
     190      444        3    -0.12282   13.33371   10.09720    6.22421
     191      444        3    -0.03789    2.42354   11.25161    5.76448
     192      444        3    -0.03789   12.68371   11.25171    5.76506
     193      444        3    -0.12282    2.07604   12.24876    6.69132
     194      444        3    -0.12282   12.33603   12.24878    6.69210
     195      444        3     0.73104    4.11908    8.71833    8.03292
     196      444        3     0.73104   14.37927    8.71847    8.03331
     197      444        3    -0.03789    2.17933   11.42633    4.31119
     198      444        3    -0.03789   12.43961   11.42636    4.31177
     199      444        3    -0.03789    0.89698   11.76951    3.77990
     200      444        3    -0.03789   11.15722   11.76933    3.78048
     201      444        3    -0.12282   -0.26614   11.85250    4.59157
     202      444        3    -0.12282    9.99388   11.85225    4.59273
     203      444        3     0.14211    8.78357   12.20596    4.03934
     204      444        3     0.14211   19.04436   12.20639    4.03915
     205      444        3    -0.12282    8.66141   12.48192    2.65993
     206      444        3    -0.12282   18.92211   12.48249    2.65974
     207      444        3    -0.12282    9.76467   12.36029    1.84594
     208      444        3    -0.12282   20.02501   12.36080    1.84710
     209      444        3    -0.03789    0.77968   12.00111    2.36404
     210      444        3    -0.03789   11.04000   12.00075    2.36443
     211      444        3    -0.03789    1.90896   11.85847    1.50642
     212      444        3    -0.03789   12.16940   11.85814    1.50661
     213      444        3     0.24725    3.13244   11.47836    2.06000
     214      444        3     0.24725   13.39282   11.47825    2.06058
     215      444        4     0.18560    5.40064   10.75013    1.67375
     216      444        4     0.18560   15.66112   10.75015    1.67433
     217      444        4    -0.37784    6.33140   10.61498    0.48785
     218      444        4    -0.37784   16.59186   10.61496    0.48844
     219      444        3    -0.12282    3.25688   11.27001    3.45163
     220      444        3    -0.12282   13.51740   11.27008    3.45143
     221      444        3    -0.03789    1.79290   12.11662    0.04789
     222      444        3    -0.03789   12.05324   12.11622    0.04848
     223      444        3    -0.03789   -2.13316   11.06638   18.48921
     224      444        3    -0.03789    8.12714   11.06600   18.48980
     225      444        3    -0.12282   -1.93083    9.71594   18.89001
     226      444        3    -0.12282    8.32972    9.71558   18.89059
     227      444        3    -0.12282   -1.83882    8.69581   17.97053
     228      444        3    -0.12282    8.42179    8.69548   17.97092
     229      444        3     0.14211   -1.96360    8.98361   16.59151
     230      444        3     0.14211    8.29952    8.98329   16.57852
     231      444        3    -0.12282   -2.18289   10.26966   16.15077
     232      444        3    -0.12282    8.07722   10.26931   16.15116
     233      444        3    -0.03789   -2.26963   11.33863   17.08266
     234      444        3    -0.03789    7.99042   11.33825   17.08324
     235      444        3    -0.03789   -2.50056   12.68174   16.66441
     236      444        3    -0.03789    7.75933   12.68135   16.66500
     237      444        3    -0.12282   -2.56385   13.69705   17.60348
     238      444        3    -0.12282    7.69618   13.69666   17.60406
     239      444        3     0.24725   -2.39778   13.43295   18.98327
     240      444        3     0.24725    7.86248   13.43254   18.98386
     241      444        4     0.18560    1.29789   15.75945    0.16016
     242      444        4     0.18560   11.55838   15.75904    0.16074
     243      444        4    -0.37784    1.36926   16.60706    1.41160
     244      444        4    -0.37784   11.62987   16.60658    1.41237
     245      444        3    -0.03789   -2.67606   13.03580   15.22703
     246      444        3    -0.03789    7.58399   13.03554   15.22703
     247      444        3    -0.12282    6.30124   13.19714   14.68818
     248      444        3    -0.12282   16.56219   13.19742   14.68779
     249      444        3    -0.03789    6.13096   13.62520   13.36442
     250      444        3    -0.03789   16.39169   13.62527   13.36403
     251      444        3    -0.12282    7.24786   13.90302   12.57156
     252      444        3    -0.12282   17.50842   13.90279   12.57097
     253      444        3    -0.03789   -1.72840   13.70808   13.08888
     254      444        3    -0.03789    8.53190   13.70840   13.08985
     255      444        3    -0.12282   -1.56379   13.26531   14.41032
     256      444        3    -0.12282    8.69626   13.26540   14.41129
     257      444        3     0.73104    4.76476   13.79423   12.79357
     258      444        3     0.73104   15.02522   13.79421   12.79415
     259      444        3     0.73104   -0.52218   13.99510   12.26267
     260      444        3     0.73104    9.73831   13.99579   12.26403
     261      444        5    -0.13663   -1.10550    4.00512   14.34652
     262      444        5    -0.13663    9.15473    4.00547   14.34594
     263      444        5    -0.13663    8.09935   15.96830    3.94103
     264      444        5    -0.13663   18.35961   15.96844    3.94123
     265      444        5    -0.13663    7.35739   12.30788    5.04394
     266      444        5    -0.13663   17.61827   12.30842    5.04394
     267      444        5    -0.13663   -1.85331    7.66878   15.45137
     268      444        5    -0.13663    8.40745    7.66851   15.45001
     269      444        6    -0.63037    3.93360    4.62166    9.12051
     270      444        6    -0.63037   14.19445    4.62175    9.12070
     271      444        6    -0.63037    4.92059    5.84272   10.75742
     272      444        6    -0.63037   15.18214    5.84237   10.75761
     273      444        6    -0.63037    1.56725    0.41828   10.20073
     274      444        6    -0.63037   11.82781    0.41838   10.20073
     275      444        6    -0.63037    2.10310   16.01946   12.13179
     276      444        6    -0.63037   12.36364   16.01963   12.13179
     277      444        6    -0.63037    2.50332    5.07981    5.90622
     278      444        6    -0.63037   12.76354    5.07976    5.90796
     279      444        6    -0.63037    1.64382    6.00993    7.73645
     280      444        6    -0.63037   11.90414    6.00983    7.73683
     281      444        6    -0.63037    6.97031    6.34868    8.21829
     282      444        6    -0.63037   17.23103    6.34883    8.21848
     283      444        6    -0.63037    5.64904    5.29001    6.69093
     284      444        6    -0.63037   15.90939    5.29207    6.69016
     285      444        7    -0.57512    2.06685    3.06262   18.19274
     286      444        7    -0.57512   12.32717    3.06260   18.19274
     287      444        7    -0.57512    4.65968    6.10031   18.84153
     288      444        7    -0.57512   14.92016    6.10023   18.84134
     289      444        6    -0.63037    2.31904   12.93022   10.26685
     290      444        6    -0.63037   12.57883   12.93016   10.26763
     291      444        6    -0.63037    1.32982   14.14917    8.62975
     292      444        6    -0.63037   11.58970   14.14912    8.63052
     293      444        6    -0.63037    4.69253    8.72762    9.18818
     294      444        6    -0.63037   14.95262    8.72761    9.18896
     295      444        6    -0.63037    4.14165    7.71241    7.25887
     296      444        6    -0.63037   14.40182    7.71265    7.25945
     297      444        6    -0.63037    3.74537   13.39148   13.47998
     298      444        6    -0.63037   14.00598   13.39155   13.48095
     299      444        6    -0.63037    4.60474   14.32023   11.65130
     300      444        6    -0.63037   14.86508   14.32023   11.65130
     301      444        6    -0.63037   -0.72202   14.65765   11.16888
     302      444        6    -0.63037    9.53848   14.65772   11.16985
     303      444        6    -0.63037    0.59754   13.58297   12.68693
     304      444        6    -0.63037   10.85811   13.58455   12.68887
     305      444        7    -0.57512    4.18480   11.36264    1.19676
     306      444        7    -0.57512   14.44524   11.36257    1.19734
     307      444        7    -0.57512    1.58854   14.40031    0.54622
     308      444        7    -0.57512   11.84970   14.39985    0.54292
     309      444        1     1.02100   -0.21388    5.66386   26.75559
     310      444        1     1.02100   10.04654    5.66401   26.75598
     311      444        1     1.18501    1.53836    6.98917   28.71089
     312      444        1     1.18501   11.79894    6.98930   28.71089
     313      444        1     1.02100   -1.53445   13.97258   31.41231
     314      444        1     1.02100    8.72591   13.97266   31.41289
     315      444        1     1.18501   -3.28656   15.29584   29.45585
     316      444        1     1.18501    6.97373   15.29597   29.45644
     317      444        2     0.10530   -1.05988    0.99114   33.24603
     318      444        2     0.10530    9.20054    0.99112   33.24603
     319      444        2     0.10530    0.67897    4.86446   32.41265
     320      444        2     0.10530   10.94027    4.86410   32.41284
     321      444        2     0.10530    2.45997    3.32910   33.12581
     322      444        2     0.10530   12.72082    3.32859   33.12620
     323      444        2     0.10530   -5.44530    4.49265   36.52683
     324      444        2     0.10530    4.81528    4.49265   36.52625
     325      444        2     0.10530   -7.41468    4.25426   38.00145
     326      444        2     0.10530    2.84607    4.25419   38.00106
     327      444        2     0.10530   -3.59601    3.08213   36.31626
     328      444        2     0.10530    6.66445    3.08166   36.31568
     329      444        2     0.10530   -2.91148    1.47322   36.67013
     330      444        2     0.10530    7.34906    1.47291   36.67032
     331      444        2     0.10530   -4.28205    3.30708   38.74021
     332      444        2     0.10530    5.97825    3.30710   38.74002
     333      444        2     0.10530   -5.03368    1.89283   37.96829
     334      444        2     0.10530    5.22678    1.89260   37.96829
     335      444        2     0.10530    0.41736    1.67040   19.39008
     336      444        2     0.10530   10.67784    1.67055   19.39008
     337      444        2     0.10530   -1.97784    2.74556   34.90253
     338      444        2     0.10530    8.28272    2.74543   34.90253
     339      444        2     0.10530    0.10041    1.19262   38.21881
     340      444        2     0.10530   10.36054    1.19253   38.21881
     341      444        2     0.10530    3.92556   15.97321   20.49318
     342      444        2     0.10530   14.18569   15.97323   20.49337
     343      444        2     0.10530    4.54488    2.16789   23.69351
     344      444        2     0.10530   14.80531    2.16805   23.69274
     345      444        2     0.10530    4.98035    6.40853   21.51853
     346      444        2     0.10530   15.24066    6.40857   21.51853
     347      444        2     0.10530    5.95186    7.50767   19.68132
     348      444        2     0.10530   16.21217    7.50766   19.68132
     349      444        2     0.10530    4.21190    7.79484   19.97760
     350      444        2     0.10530   14.47218    7.79475   19.97740
     351      444        2     0.10530   -0.13835    8.30796   36.94585
     352      444        2     0.10530   10.12204    8.30788   36.94585
     353      444        2     0.10530    1.15368    9.35279   37.59911
     354      444        2     0.10530   11.41398    9.35275   37.59911
     355      444        2     0.10530    1.57278    7.94274   36.60420
     356      444        2     0.10530   11.83328    7.94279   36.60420
     357      444        2     0.10530   -3.16718    4.69119   23.48604
     358      444        2     0.10530    7.09350    4.69123   23.48623
     359      444        2     0.10530   -4.85716    5.96036   27.22386
     360      444        2     0.10530    5.40316    5.95998   27.22406
     361      444        2     0.10530    2.80734    4.82391   23.97583
     362      444        2     0.10530   13.06769    4.82434   23.97583
     363      444        2     0.10530   -0.68203    9.29644   24.92517
     364      444        2     0.10530    9.57826    9.29662   24.92594
     365      444        2     0.10530   -2.42488   13.16859   25.75545
     366      444        2     0.10530    7.83507   13.16859   25.75623
     367      444        2     0.10530   -4.20419   11.63260   25.04403