Created on Tue Feb 06 15:22:44 2018 

        3456 atoms
        4032 bonds
        7168 angles
        8448 dihedrals
        5376 impropers

           5 atom types
           7 bond types
          12 angle types
           3 dihedral types
           1 improper types
           0.000000  31.890000 xlo xhi
           0.000000  37.635355 ylo yhi
           0.000000  39.294289 zlo zhi
           9.117467   0.961281  19.370783 xy xz yz

Masses

    1    65.380000000 # Zn3f2
    2     1.007940000 # H_
    3    12.010700000 # C_R
    4    14.006700000 # N_R
    5    15.999400000 # O_R

Bond Coeffs

    1      148.759211        1.886642  # Zn3f2 O_R
    2      154.048673        1.928536  # Zn3f2 N_R
    3      357.440381        1.081418  # H_ C_R
    4      391.669513        1.458000  # C_R C_R
    5      646.680887        1.311940  # C_R O_R
    6      462.655054        1.379256  # C_R C_R
    7      663.718927        1.345073  # C_R N_R

Angle Coeffs

    1                      fourier       45.004281        0.343737        0.374972        0.281246 # O_R Zn3f2 O_R
    2                      fourier       47.099941        0.343737        0.374972        0.281246 # N_R Zn3f2 O_R
    3              cosine/periodic      217.450257              -1               3 # O_R C_R O_R
    4              cosine/periodic      137.761490              -1               3 # C_R C_R O_R
    5              cosine/periodic      117.010657              -1               3 # C_R C_R C_R
    6              cosine/periodic      101.626578              -1               3 # C_R C_R C_R
    7              cosine/periodic       76.817955              -1               3 # H_ C_R C_R
    8              cosine/periodic      165.695700              -1               3 # N_R C_R C_R
    9              cosine/periodic      109.704024              -1               3 # H_ C_R N_R
   10              cosine/periodic      132.654363              -1               3 # C_R N_R C_R
   11              cosine/periodic       33.704159              -1               3 # Zn3f2 N_R C_R
   12              cosine/periodic       46.721183              -1               3 # Zn3f2 O_R C_R

Dihedral Coeffs

    1        0.555556              -1               2 # O_R C_R C_R C_R
    2        2.245703              -1               2 # C_R C_R O_R Zn3f2
    3        1.497136              -1               2 # C_R C_R C_R C_R

Improper Coeffs

    1        2.000000        1.000000       -1.000000        0.000000               0 # O_R C_R C_R O_R

Pair Coeffs

    1        0.124000        2.461553 # Zn3f2 Zn3f2
    2        0.044000        2.571134 # H_ H_
    3        0.105000        3.430851 # C_R C_R
    4        0.069000        3.260689 # N_R N_R
    5        0.060000        3.118146 # O_R O_R

Atoms

       1      444        1     0.93049    4.07624    6.41955    4.41668
       2      444        1     0.93049    4.27940   11.29033   14.25400
       3      444        1     0.93049    6.35569   15.82860    4.41687
       4      444        1     0.93049    6.55862   20.69936   14.25400
       5      444        1     0.93049   12.04901    6.41963    4.41687
       6      444        1     0.93049   12.25200   11.29039   14.25400
       7      444        1     0.93049   14.32835   15.82854    4.41668
       8      444        1     0.93049   14.53151   20.69932   14.25400
       9      444        1     0.93049    6.45292    7.80312    5.39275
      10      444        1     0.93049    6.65615   12.67375   15.22988
      11      444        1     0.93049    8.73238   17.21209    5.39275
      12      444        1     0.93049    8.93544   22.08213   15.22850
      13      444        1     0.93049   14.42574    7.80312    5.39275
      14      444        1     0.93049   14.62883   12.67384   15.22988
      15      444        1     0.93049   16.70502   17.21211    5.39275
      16      444        1     0.93049   16.90829   22.08276   15.22988
      17      444        2     0.10410    1.32433    4.52022    5.45778
      18      444        2     0.10410    1.53299    9.39265   15.29334
      19      444        2     0.10410    3.60365   13.92925    5.45778
      20      444        2     0.10410    3.81251   18.80160   15.29334
      21      444        2     0.10410    9.29699    4.52016    5.45758
      22      444        2     0.10410    9.50591    9.39261   15.29334
      23      444        2     0.10410   11.57642   13.92927    5.45778
      24      444        2     0.10410   11.78507   18.80173   15.29334
      25      444        2     0.10410    5.71783    2.47094    4.23180
      26      444        2     0.10410    5.92682    7.34341   14.06755
      27      444        2     0.10410    7.99736   11.87985    4.23180
      28      444        2     0.10410    8.20610   16.75230   14.06736
      29      444        2     0.10410   13.69065    2.47096    4.23180
      30      444        2     0.10410   13.89942    7.34337   14.06736
      31      444        2     0.10410   15.97004   11.87993    4.23180
      32      444        2     0.10410   16.17897   16.75230   14.06736
      33      444        2     0.10410    4.05282    4.00767    2.70168
      34      444        2     0.10410    4.27379    8.87414   12.55060
      35      444        2     0.10410    6.33244   13.41676    2.70168
      36      444        2     0.10410    6.55288   18.28356   12.55197
      37      444        2     0.10410   12.02607    4.00807    2.70148
      38      444        2     0.10410   12.24644    8.87479   12.55177
      39      444        2     0.10410   14.30533   13.41698    2.70148
      40      444        2     0.10410   14.52576   18.28358   12.55197
      41      444        2     0.10410    2.95483    3.27460    0.61496
      42      444        2     0.10410    3.19600    8.12852   10.45955
      43      444        2     0.10410    5.23444   12.68374    0.61515
      44      444        2     0.10410    5.47493   17.53642   10.45817
      45      444        2     0.10410   10.92818    3.27516    0.61496
      46      444        2     0.10410   11.16865    8.12856   10.45955
      47      444        2     0.10410   13.20737   12.68404    0.61496
      48      444        2     0.10410   13.44785   17.53723   10.45975
      49      444        2     0.10410    2.60881    4.24550    8.02802
      50      444        2     0.10410    2.83447    9.09019   17.86397
      51      444        2     0.10410    4.88832   13.65441    8.02802
      52      444        2     0.10410    5.11387   18.49922   17.86397
      53      444        2     0.10410   10.58163    4.24544    8.02802
      54      444        2     0.10410   10.80718    9.09027   17.86397
      55      444        2     0.10410   12.86095   13.65447    8.02802
      56      444        2     0.10410   13.08663   18.49918   17.86397
      57      444        2     0.10410   17.33448    7.14600    3.19698
      58      444        2     0.10410   17.53705   12.00256   13.01368
      59      444        2     0.10410   19.61372   16.55475    3.19718
      60      444        2     0.10410   19.81647   21.41176   13.01348
      61      444        2     0.10410    9.36193    7.14555    3.19718
      62      444        2     0.10410    9.56471   12.00271   13.01368
      63      444        2     0.10410   11.64125   16.55452    3.19718
      64      444        2     0.10410   11.84426   21.41168   13.01368
      65      444        2     0.10410    5.99826    6.51974    9.35263
      66      444        2     0.10410    6.21999   11.38032   19.17129
      67      444        2     0.10410    8.27778   15.92867    9.35263
      68      444        2     0.10410    8.49932   20.78861   19.16972
      69      444        2     0.10410   13.97109    6.51967    9.35263
      70      444        2     0.10410   14.19267   11.38039   19.17129
      71      444        2     0.10410   16.25042   15.92879    9.35263
      72      444        2     0.10410   16.47209   20.78865   19.16972
      73      444        2     0.10410    8.15933    6.57975    1.13364
      74      444        2     0.10410    8.38239   11.42419   10.94189
      75      444        2     0.10410   10.43857   15.98868    1.13364
      76      444        2     0.10410   10.66188   20.83312   10.94189
      77      444        2     0.10410   16.13237    6.58025    1.13325
      78      444        2     0.10410   16.35515   11.42386   10.94149
      79      444        2     0.10410   18.41156   15.98885    1.13344
      80      444        2     0.10410   18.63458   20.83310   10.94149
      81      444        2     0.10410    9.19917    9.70074    4.35302
      82      444        2     0.10410    9.40812   14.57304   14.18897
      83      444        2     0.10410   11.47842   19.10979    4.35302
      84      444        2     0.10410   11.68757   23.98201   14.18897
      85      444        2     0.10410   17.17177    9.70020    4.35184
      86      444        2     0.10410   17.38090   14.57217   14.18720
      87      444        2     0.10410   19.45124   19.10979    4.35302
      88      444        2     0.10410   19.66023   23.98209   14.18897
      89      444        2     0.10410    4.80544   11.74914    5.57782
      90      444        2     0.10410    5.01444   16.62261   15.41476
      91      444        2     0.10410    7.08494   21.15877    5.57920
      92      444        2     0.10410    7.29371   26.03088   15.41318
      93      444        2     0.10410   12.77826   11.74976    5.57900
      94      444        2     0.10410   12.98703   16.62262   15.41456
      95      444        2     0.10410   15.05763   21.15875    5.57900
      96      444        2     0.10410   15.26664   26.03148   15.41456
      97      444        2     0.10410    6.45885   10.21897    7.09439
      98      444        2     0.10410    6.67933   15.08518   16.94507
      99      444        2     0.10410    8.73812   19.62778    7.09458
     100      444        2     0.10410    8.95856   24.49413   16.94507
     101      444        2     0.10410   14.43167   10.21897    7.09439
     102      444        2     0.10410   14.65156   15.08412   16.94370
     103      444        2     0.10410   16.71075   19.62778    7.09458
     104      444        2     0.10410   16.93123   24.49398   16.94527
     105      444        2     0.10410    7.53680   10.96466    9.18504
     106      444        2     0.10410    7.77733   15.81816   19.03160
     107      444        2     0.10410    9.81605   20.37410    9.18681
     108      444        2     0.10410   10.05653   25.22702   19.03160
     109      444        2     0.10410   15.50967   10.96543    9.18661
     110      444        2     0.10410   15.74949   15.81784   19.03199
     111      444        2     0.10410   17.78865   20.37410    9.18681
     112      444        2     0.10410   18.02912   25.22681   19.03180
     113      444        2     0.10410    7.89789   10.00300    1.78259
     114      444        2     0.10410    8.12353   14.84782   11.61854
     115      444        2     0.10410   10.17731   19.41208    1.78278
     116      444        2     0.10410   10.40287   24.25691   11.61854
     117      444        2     0.10410   15.87060   10.00278    1.78200
     118      444        2     0.10410   16.09619   14.84794   11.61854
     119      444        2     0.10410   18.15002   19.41200    1.78259
     120      444        2     0.10410   18.37567   24.25683   11.61854
     121      444        2     0.10410    9.14017    7.09070    6.63288
     122      444        2     0.10410    9.34330   11.94754   16.44938
     123      444        2     0.10410   11.41968   16.49974    6.63288
     124      444        2     0.10410   11.62257   21.35618   16.44859
     125      444        2     0.10410    1.08790    7.09064    6.63288
     126      444        2     0.10410    1.33245   11.94789   16.44898
     127      444        2     0.10410    3.36735   16.49984    6.63288
     128      444        2     0.10410    3.61176   21.35658   16.44918
     129      444        2     0.10410    4.51238    7.71291    0.47546
     130      444        2     0.10410    4.73408   12.57313   10.29314
     131      444        2     0.10410    6.79179   17.12195    0.47546
     132      444        2     0.10410    7.01344   21.98264   10.29392
     133      444        2     0.10410   12.48512    7.71295    0.47546
     134      444        2     0.10410   12.70673   12.57321   10.29314
     135      444        2     0.10410   14.76453   17.12188    0.47526
     136      444        2     0.10410   14.98623   21.98260   10.29392
     137      444        2     0.10410    2.34990    7.66924    8.70467
     138      444        2     0.10410    2.57359   12.51388   18.51252
     139      444        2     0.10410    4.62935   17.07836    8.70447
     140      444        2     0.10410    4.85278   21.92254   18.51291
     141      444        2     0.10410   10.32262    7.66936    8.70467
     142      444        2     0.10410   10.54604   12.51342   18.51291
     143      444        2     0.10410   12.60210   17.07833    8.70467
     144      444        2     0.10410   12.82527   21.92237   18.51291
     145      444        3     0.66294    4.43741    6.08506    7.19930
     146      444        3     0.66294    4.64264   10.94942   17.03172
     147      444        3     0.66294    6.71712   15.49375    7.19930
     148      444        3     0.66294    6.92223   20.35811   17.03152
     149      444        3     0.66294   12.41021    6.08500    7.19930
     150      444        3     0.66294   12.61544   10.94935   17.03172
     151      444        3     0.66294   14.68959   15.49401    7.19930
     152      444        3     0.66294   14.89502   20.35805   17.03152
     153      444        3    -0.05259    4.31014    5.45265    8.55987
     154      444        3    -0.05259    4.53169   10.30628   18.38776
     155      444        3    -0.05259    6.58926   14.86200    8.56006
     156      444        3    -0.05259    6.81069   19.71590   18.38835
     157      444        3    -0.05259   12.28293    5.45259    8.55987
     158      444        3    -0.05259   12.50416   10.30682   18.38835
     159      444        3    -0.05259   14.56221   14.86171    8.55987
     160      444        3    -0.05259   14.78342   19.71594   18.38835
     161      444        3    -0.09960    3.31148    4.50119    8.81960
     162      444        3    -0.09960    3.54362    9.34534   18.65103
     163      444        3    -0.09960    5.59122   13.91025    8.82039
     164      444        3    -0.09960    5.82329   18.75395   18.65084
     165      444        3    -0.09960   11.28425    4.50117    8.81960
     166      444        3    -0.09960   11.51650    9.34511   18.65084
     167      444        3    -0.09960   13.56368   13.91053    8.82039
     168      444        3    -0.09960   13.79605   18.75396   18.65084
     169      444        3    -0.09960    5.22292    5.78708    9.57386
     170      444        3    -0.09960    5.45303   10.63970   19.39507
     171      444        3    -0.09960    7.50265   15.19571    9.57366
     172      444        3    -0.09960    7.73271   20.04831   19.39468
     173      444        3    -0.09960   13.19569    5.78703    9.57386
     174      444        3    -0.09960   13.42591   10.63949   19.39487
     175      444        3    -0.09960   15.47507   15.19520    9.57209
     176      444        3    -0.09960   15.70544   20.04833   19.39468
     177      444        3     0.66294    6.69830    4.94048    4.76306
     178      444        3     0.66294    6.90842    9.81377   14.60235
     179      444        3     0.66294    8.97770   14.34946    4.76325
     180      444        3     0.66294    9.18764   19.22282   14.60215
     181      444        3     0.66294   14.67105    4.94057    4.76345
     182      444        3     0.66294   14.88104    9.81369   14.60176
     183      444        3     0.66294   16.95041   14.34953    4.76325
     184      444        3     0.66294   17.16055   19.22274   14.60215
     185      444        3    -0.09960    0.80729    3.59362    5.21533
     186      444        3    -0.09960    1.01613    8.46617   15.05050
     187      444        3    -0.09960    3.08667   13.00262    5.21514
     188      444        3    -0.09960    3.29565   17.87520   15.05069
     189      444        3    -0.09960    8.78003    3.59357    5.21494
     190      444        3    -0.09960    8.98892    8.46559   15.04971
     191      444        3    -0.09960   11.05946   13.00262    5.21514
     192      444        3    -0.09960   11.26822   17.87527   15.05069
     193      444        3    -0.09960    6.76755    2.43553    4.51963
     194      444        3    -0.09960    6.97654    7.30807   14.35538
     195      444        3    -0.09960    9.04705   11.84454    4.51983
     196      444        3    -0.09960    9.25588   16.71712   14.35519
     197      444        3    -0.09960   14.74029    2.43548    4.51983
     198      444        3    -0.09960   14.94921    7.30818   14.35519
     199      444        3    -0.09960   17.01970   11.84409    4.51884
     200      444        3    -0.09960   17.22874   16.71710   14.35519
     201      444        3     0.15418    3.18406    4.53644    2.31050
     202      444        3     0.15418    3.40570    9.39848   12.15313
     203      444        3     0.15418    5.46359   13.94543    2.31050
     204      444        3     0.15418    5.68484   18.80742   12.15333
     205      444        3     0.15418   11.15719    4.53738    2.31188
     206      444        3     0.15418   11.37833    9.39854   12.15313
     207      444        3     0.15418   13.43642   13.94565    2.31050
     208      444        3     0.15418   13.65769   18.80738   12.15333
     209      444        3    -0.09960    2.56162    4.14533    1.13619
     210      444        3    -0.09960    2.79464    8.99934   10.97391
     211      444        3    -0.09960    4.84115   13.55428    1.13619
     212      444        3    -0.09960    5.07372   18.40820   10.97411
     213      444        3    -0.09960   10.53473    4.14551    1.13600
     214      444        3    -0.09960   10.76730    8.99942   10.97391
     215      444        3    -0.09960   12.81395   13.55441    1.13600
     216      444        3    -0.09960   13.04658   18.40818   10.97411
     217      444        3    -0.05259    1.46906    4.88004    0.64128
     218      444        3    -0.05259    1.70311    9.72719   10.46702
     219      444        3    -0.05259    3.74844   14.28880    0.64128
     220      444        3    -0.05259    3.98232   19.13610   10.46702
     221      444        3    -0.05259    9.44193    4.87998    0.64128
     222      444        3    -0.05259    9.67577    9.72717   10.46682
     223      444        3    -0.05259   11.72115   14.28890    0.64128
     224      444        3    -0.05259   11.95512   19.13603   10.46702
     225      444        3    -0.09960    9.00799    5.96465    1.42285
     226      444        3    -0.09960    9.23096   10.81341   11.24072
     227      444        3    -0.09960   11.28722   15.37354    1.42285
     228      444        3    -0.09960   11.51039   20.22225   11.24072
     229      444        3    -0.09960   16.98081    5.96492    1.42265
     230      444        3    -0.09960   17.20373   10.81328   11.24072
     231      444        3    -0.09960   19.26011   15.37367    1.42285
     232      444        3    -0.09960   19.48307   20.22238   11.24072
     233      444        3     0.15418    1.70522    6.29712    2.59283
     234      444        3     0.15418    1.91709   11.15305   12.41523
     235      444        3     0.15418    3.98453   15.70594    2.59303
     236      444        3     0.15418    4.19642   20.56220   12.41523
     237      444        3     0.15418    9.67785    6.29690    2.59303
     238      444        3     0.15418    9.88974   11.15316   12.41523
     239      444        3     0.15418   11.95715   15.70585    2.59303
     240      444        3     0.15418   12.16923   20.56207   12.41523
     241      444        3    -0.05259    7.43223    3.63352    4.82573
     242      444        3    -0.05259    7.64105    8.50611   14.66227
     243      444        3    -0.05259    9.71174   13.04258    4.82573
     244      444        3    -0.05259    9.92027   17.91512   14.66227
     245      444        3    -0.05259   15.40509    3.63357    4.82554
     246      444        3    -0.05259   15.61357    8.50613   14.66247
     247      444        3    -0.05259   17.68442   13.04260    4.82573
     248      444        3    -0.05259   17.89316   17.91506   14.66227
     249      444        3     0.66294    6.08945    8.14412    2.61503
     250      444        3     0.66294    6.29478   13.00860   12.44745
     251      444        3     0.66294    8.36911   17.55275    2.61484
     252      444        3     0.66294    8.57437   22.41733   12.44725
     253      444        3     0.66294   14.06219    8.14418    2.61503
     254      444        3     0.66294   14.26764   13.00839   12.44725
     255      444        3     0.66294   16.34168   17.55302    2.61503
     256      444        3     0.66294   16.54715   22.41729   12.44725
     257      444        3    -0.05259    6.20104    8.78630    1.25820
     258      444        3    -0.05259    6.42261   13.64031   11.08669
     259      444        3    -0.05259    8.48008   18.19570    1.25840
     260      444        3    -0.05259    8.70157   23.04985   11.08688
     261      444        3    -0.05259   14.17383    8.78630    1.25820
     262      444        3    -0.05259   14.39480   13.63788   11.08099
     263      444        3    -0.05259   16.45303   18.19546    1.25820
     264      444        3    -0.05259   16.67438   23.04978   11.08688
     265      444        3    -0.09960    7.18843    9.74827    0.99572
     266      444        3    -0.09960    7.42064   14.59196   10.82617
     267      444        3    -0.09960    9.46816   19.15694    0.99572
     268      444        3    -0.09960    9.70020   24.00082   10.82617
     269      444        3    -0.09960   15.16118    9.74831    0.99572
     270      444        3    -0.09960   15.39347   14.59187   10.82617
     271      444        3    -0.09960   17.44069   19.15718    0.99572
     272      444        3    -0.09960   17.67304   24.00071   10.82617
     273      444        3    -0.09960    5.27902    8.45391    0.25188
     274      444        3    -0.09960    5.50923   13.30648   10.07289
     275      444        3    -0.09960    7.55876   17.86259    0.25168
     276      444        3    -0.09960    7.78874   22.71452   10.07113
     277      444        3    -0.09960   13.25178    8.45392    0.25188
     278      444        3    -0.09960   13.48206   13.30641   10.07289
     279      444        3    -0.09960   15.53129   17.86278    0.25168
     280      444        3    -0.09960   15.76161   22.71522   10.07270
     281      444        3     0.66294    3.82375    9.27943    5.04421
     282      444        3     0.66294    4.03415   14.15287   14.88350
     283      444        3     0.66294    6.10322   18.68846    5.04421
     284      444        3     0.66294    6.31338   23.56182   14.88350
     285      444        3     0.66294   11.79659    9.27945    5.04421
     286      444        3     0.66294   12.00677   14.15291   14.88350
     287      444        3     0.66294   14.07580   18.68844    5.04440
     288      444        3     0.66294   14.28628   23.56180   14.88330
     289      444        3    -0.09960    9.71610   10.62703    4.59547
     290      444        3    -0.09960    9.92500   15.49963   14.43142
     291      444        3    -0.09960   11.99536   20.03621    4.59586
     292      444        3    -0.09960   12.20456   24.90868   14.43142
     293      444        3    -0.09960   17.68875   10.62716    4.59566
     294      444        3    -0.09960   17.89782   15.49959   14.43142
     295      444        3    -0.09960   19.96825   20.03623    4.59566
     296      444        3    -0.09960   20.17709   24.90862   14.43142
     297      444        3    -0.09960    3.75572   11.78508    5.29117
     298      444        3    -0.09960    3.96474   16.65782   15.12673
     299      444        3    -0.09960    6.03524   21.19412    5.29117
     300      444        3    -0.09960    6.24402   26.06693   15.12693
     301      444        3    -0.09960   11.72850   11.78508    5.29117
     302      444        3    -0.09960   11.93733   16.65792   15.12673
     303      444        3    -0.09960   14.00785   21.19403    5.29117
     304      444        3    -0.09960   14.21697   26.06683   15.12653
     305      444        3     0.15418    7.32685    9.69435    7.49146
     306      444        3     0.15418    7.54817   14.55581   17.33468
     307      444        3     0.15418    9.60623   19.10399    7.49322
     308      444        3     0.15418    9.82742   23.96485   17.33487
     309      444        3     0.15418   15.29972    9.69523    7.49322
     310      444        3     0.15418   15.52058   14.55571   17.33487
     311      444        3     0.15418   17.57886   19.10401    7.49322
     312      444        3     0.15418   17.80013   23.96467   17.33487
     313      444        3    -0.09960    7.93807   10.09440    8.67225
     314      444        3    -0.09960    8.17072   14.94729   18.50957
     315      444        3    -0.09960   10.21734   19.50319    8.67245
     316      444        3    -0.09960   10.44995   24.35668   18.51056
     317      444        3    -0.09960   15.91086   10.09437    8.67225
     318      444        3    -0.09960   16.14311   14.94756   18.51056
     319      444        3    -0.09960   18.18995   19.50319    8.67245
     320      444        3    -0.09960   18.42264   24.35650   18.51056
     321      444        3    -0.05259    9.02947    9.36651    9.17934
     322      444        3    -0.05259    9.26350   14.21324   19.00527
     323      444        3    -0.05259   11.30881   18.77537    9.17954
     324      444        3    -0.05259   11.54272   23.62214   19.00527
     325      444        3    -0.05259   17.00226    9.36655    9.17954
     326      444        3    -0.05259   17.23609   14.21330   19.00527
     327      444        3    -0.05259   19.28148   18.77544    9.17954
     328      444        3    -0.05259   19.51549   23.62216   19.00547
     329      444        3    -0.09960    1.50145    8.28019    8.40583
     330      444        3    -0.09960    1.72475   13.12886   18.22351
     331      444        3    -0.09960    3.78077   17.68886    8.40505
     332      444        3    -0.09960    4.00406   22.53757   18.22371
     333      444        3    -0.09960    9.47414    8.28018    8.40564
     334      444        3    -0.09960    9.69739   13.12858   18.22371
     335      444        3    -0.09960   11.75356   17.68916    8.40583
     336      444        3    -0.09960   11.97664   22.53751   18.22371
     337      444        3     0.15418    8.81526    7.94039    7.23133
     338      444        3     0.15418    9.02742   12.79622   17.05352
     339      444        3     0.15418   11.09473   17.34936    7.23133
     340      444        3     0.15418   11.30669   22.20522   17.05352
     341      444        3     0.15418   16.78804    7.94035    7.23133
     342      444        3     0.15418   17.00021   12.79648   17.05333
     343      444        3     0.15418   19.06738   17.34887    7.23015
     344      444        3     0.15418   19.27957   22.20524   17.05352
     345      444        3    -0.05259    3.09121   10.58721    4.98428
     346      444        3    -0.05259    3.30012   15.45976   14.82082
     347      444        3    -0.05259    5.37067   19.99616    4.98428
     348      444        3    -0.05259    5.57946   24.86879   14.82063
     349      444        3    -0.05259   11.06401   10.58721    4.98428
     350      444        3    -0.05259   11.27275   15.45984   14.82082
     351      444        3    -0.05259   13.34336   19.99621    4.98409
     352      444        3    -0.05259   13.55223   24.86875   14.82102
     353      444        4    -0.28900    2.77953    5.60726    3.02861
     354      444        4    -0.28900    2.99083   10.46964   12.86259
     355      444        4    -0.28900    5.05898   15.01625    3.02880
     356      444        4    -0.28900    5.27009   19.87866   12.86259
     357      444        4    -0.28900   10.75237    5.60722    3.02861
     358      444        4    -0.28900   10.96348   10.46963   12.86240
     359      444        4    -0.28900   13.03168   15.01620    3.02861
     360      444        4    -0.28900   13.24292   19.87859   12.86259
     361      444        4    -0.28900    7.74160    8.62393    6.78396
     362      444        4    -0.28900    7.95290   13.48591   16.61795
     363      444        4    -0.28900   10.02100   18.03282    6.78396
     364      444        4    -0.28900   10.23218   22.89491   16.61795
     365      444        4    -0.28900   15.71438    8.62389    6.78396
     366      444        4    -0.28900   15.92552   13.48600   16.61795
     367      444        4    -0.28900   17.99365   18.03286    6.78396
     368      444        4    -0.28900   18.20500   22.89486   16.61795
     369      444        5    -0.58828    3.55933    5.78158    6.32029
     370      444        5    -0.58828    3.76319   10.64270   16.15506
     371      444        5    -0.58828    5.83874   15.19058    6.32029
     372      444        5    -0.58828    6.04247   20.05178   16.15506
     373      444        5    -0.58828   11.53209    5.78154    6.32029
     374      444        5    -0.58828   11.73581   10.64221   16.15388
     375      444        5    -0.58828   13.81142   15.18973    6.31852
     376      444        5    -0.58828   14.01525   20.05115   16.15388
     377      444        5    -0.58828    5.42214    6.86568    7.02503