Created on Tue Feb 06 15:06:01 2018 

        1280 atoms
        1456 bonds
        2496 angles
        3136 dihedrals
        2016 impropers

           7 atom types
          11 bond types
          18 angle types
           5 dihedral types
           1 improper types
           0.000000  32.486000 xlo xhi
           0.000000  30.003809 ylo yhi
           0.000000  43.454575 zlo zhi
          12.464811  13.497266   8.823053 xy xz yz

Masses

    1    65.380000000 # Zn4+2
    2     1.007940000 # H_
    3    12.010700000 # C_R
    4    12.010700000 # C_2
    5    14.006700000 # N_R
    6    15.999400000 # O_2
    7    15.999400000 # O_3

Bond Coeffs

    1      104.409475        2.122938  # Zn4+2 O_2
    2      101.478011        2.216443  # Zn4+2 N_R
    3      357.440381        1.081418  # H_ C_R
    4      354.483902        1.084416  # H_ C_2
    5      391.669513        1.458000  # C_R C_R
    6      714.557442        1.269010  # C_R O_2
    7      462.655054        1.379256  # C_R C_R
    8      572.510195        1.366311  # C_R O_3
    9      663.718927        1.345073  # C_R N_R
   10      389.261715        1.461000  # C_R C_2
   11      517.346067        1.328833  # C_2 C_2

Angle Coeffs

    1              cosine/periodic       42.809957               1               4 # O_2 Zn4+2 N_R
    2              cosine/periodic       43.207730               1               4 # O_2 Zn4+2 O_2
    3              cosine/periodic      256.805977              -1               3 # O_2 C_R O_2
    4              cosine/periodic      148.862838              -1               3 # C_R C_R O_2
    5              cosine/periodic      117.010657              -1               3 # C_R C_R C_R
    6              cosine/periodic      101.626578              -1               3 # C_R C_R C_R
    7              cosine/periodic       76.817955              -1               3 # C_R C_R H_
    8              cosine/periodic      144.104200              -1               3 # C_R C_R O_3
    9              cosine/periodic      165.695700              -1               3 # C_R C_R N_R
   10              cosine/periodic      109.704024              -1               3 # N_R C_R H_
   11              cosine/periodic      101.089243              -1               3 # C_R C_R C_2
   12              cosine/periodic      110.514224              -1               3 # C_2 C_2 C_R
   13              cosine/periodic       64.722957              -1               3 # H_ C_2 C_R
   14              cosine/periodic       84.775358              -1               3 # H_ C_2 C_2
   15              cosine/periodic      132.654363              -1               3 # C_R N_R C_R
   16              cosine/periodic       21.958282              -1               3 # Zn4+2 N_R C_R
   17              cosine/periodic       28.000941              -1               3 # Zn4+2 O_2 C_R
   18                      fourier      177.212291        0.300235        0.267331        0.266745 # C_R O_3 C_R

Dihedral Coeffs

    1        0.555556              -1               2 # O_2 C_R C_R C_R
    2        2.245703              -1               2 # O_2 C_R O_2 Zn4+2
    3        1.497136              -1               2 # C_R C_R C_R C_R
    4        0.833333               1               2 # C_R C_R O_3 C_R
    5        2.165197              -1               2 # C_R C_2 C_2 H_

Improper Coeffs

    1        2.000000        1.000000       -1.000000        0.000000               0 # O_2 C_R C_R O_2

Pair Coeffs

    1        0.124000        2.461553 # Zn4+2 Zn4+2
    2        0.044000        2.571134 # H_ H_
    3        0.105000        3.430851 # C_R C_R
    4        0.105000        3.430851 # C_2 C_2
    5        0.069000        3.260689 # N_R N_R
    6        0.060000        3.118146 # O_2 O_2
    7        0.060000        3.118146 # O_3 O_3

Atoms

       1      444        1     0.94448   23.13655   11.01208   10.60726
       2      444        1     0.94448    6.76268    0.12695    0.26572
       3      444        1     0.94448    6.08816    8.40024   11.11785
       4      444        1     0.94448   22.46132   19.28522   21.46026
       5      444        2     0.11206   10.85559   10.78317   12.26462
       6      444        2     0.11206   13.09215   10.32468   13.33338
       7      444        2     0.11206   11.87790    6.27229   14.09797
       8      444        2     0.11206    9.65416    6.74308   13.03377
       9      444        2     0.11206   15.98013    6.83503   15.03876
      10      444        2     0.11206   16.37366    5.75174   17.27471
      11      444        2     0.11206   12.43578    6.89463   18.51599
      12      444        2     0.11206   12.03814    7.99213   16.31415
      13      444        2     0.11206    8.76289   12.45131    8.77717
      14      444        2     0.11206    9.94711   14.66360    8.68483
      15      444        2     0.11206   24.04354   15.76154   12.28222
      16      444        2     0.11206   22.97658   13.51141   12.21291
      17      444        2     0.11206   10.36459   16.81135    9.58260
      18      444        2     0.11206   18.43047   15.78072   20.37585
      19      444        2     0.11206   17.98700   13.54157   19.30622
      20      444        2     0.11206   22.19037   13.10334   18.51925
      21      444        2     0.11206   22.61751   15.33689   19.58215
      22      444        2     0.11206   20.08635    9.54956   17.54044
      23      444        2     0.11206   20.91656    8.80375   15.28623
      24      444        2     0.11206   21.35118   12.89606   14.09536
      25      444        2     0.11206   20.51000   13.65229   16.31763
      26      444        2     0.11206   10.94420   13.95776    2.09581
      27      444        2     0.11206    8.44699   13.71193    2.18272
      28      444        2     0.11206    8.77964    5.52595   20.31262
      29      444        2     0.11206   11.26653    5.64776   20.38628
      30      444        2     0.11206    6.16543   14.14491    1.27756
      31      444        2     0.11206   18.36703    8.62978    9.46354
      32      444        2     0.11206   16.13084    9.08884    8.39434
      33      444        2     0.11206   17.34731   13.14017    7.62780
      34      444        2     0.11206   19.57161   12.66821    8.69026
      35      444        2     0.11206   13.24377   12.57729    6.68701
      36      444        2     0.11206   12.84986   13.65956    4.44975
      37      444        2     0.11206   16.78844   12.51816    3.20912
      38      444        2     0.11206   17.18653   11.42148    5.41270
      39      444        2     0.11206   20.46171    6.96199   12.94903
      40      444        2     0.11206   19.27727    4.74980   13.04202
      41      444        2     0.11206    5.18039    3.65070    9.44463
      42      444        2     0.11206    6.24712    5.90073    9.51264
      43      444        2     0.11206   18.80269    2.46560   12.14338
      44      444        2     0.11206   10.79312    3.63169    1.34840
      45      444        2     0.11206   11.23715    5.87060    2.41846
      46      444        2     0.11206    7.03413    6.30867    3.20738
      47      444        2     0.11206    6.60653    4.07519    2.14470
      48      444        2     0.11206    9.13986    9.86246    4.18511
      49      444        2     0.11206    8.31091   10.60868    6.43975
      50      444        2     0.11206    7.87146    6.51648    7.62954
      51      444        2     0.11206    8.71358    5.75996    5.40770
      52      444        2     0.11206   18.27994    5.45461   19.63039
      53      444        2     0.11206   20.77714    5.70068   19.54369
      54      444        2     0.11206   20.44442   13.88703    1.41401
      55      444        2     0.11206   17.95760   13.76507    1.34036
      56      444        2     0.11206   22.91829    5.26794   20.44907
      57      444        3     0.70654    8.78126    9.07447   11.98021
      58      444        3    -0.07071   10.11863    8.79398   12.59639
      59      444        3    -0.14241   11.09109    9.80083   12.67135
      60      444        3    -0.14241   12.32766    9.55170   13.26234
      61      444        3     0.30616   12.59380    8.28393   13.78205
      62      444        3    -0.14241   11.64530    7.25910   13.69884
      63      444        3    -0.14241   10.41163    7.52187   13.11025
      64      444        3     0.30616   13.98469    7.45251   15.54370
      65      444        3    -0.14241   15.21227    6.83486   15.81203
      66      444        3    -0.14241   15.42616    6.24025   17.05114
      67      444        3    -0.07071   14.42284    6.23979   18.03191
      68      444        3    -0.14241   13.20616    6.87547   17.74793
      69      444        3    -0.14241   12.98117    7.48862   16.51947
      70      444        3     0.70654   14.63922    5.57256   19.35380
      71      444        3     0.18242    8.58477   13.22880    9.52090
      72      444        3    -0.14241    9.23395   14.45572    9.48309
      73      444        3    -0.07071    8.97843   15.42043   10.47559
      74      444        3    -0.14241   24.29187   15.07259   11.47201
      75      444        3     0.18242   23.68565   13.82914   11.44876
      76      444        4    -0.14241    9.67507   16.69921   10.42323
      77      444        3     0.70654   20.80449   17.04383   20.63658
      78      444        3    -0.07071   20.54763   15.69777   20.02908
      79      444        3    -0.14241   19.24441   15.18548   19.96477
      80      444        3    -0.14241   18.99503   13.94947   19.37270
      81      444        3     0.30616   20.05959   13.21765   18.84408
      82      444        3    -0.14241   21.37147   13.69780   18.92338
      83      444        3    -0.14241   21.60690   14.93685   19.51219
      84      444        3     0.30616   20.27368   11.63640   17.06244
      85      444        3    -0.14241   20.37165   10.26979   16.77347
      86      444        3    -0.14241   20.82846    9.86271   15.52545
      87      444        3    -0.07071   21.20349   10.80347   14.55446
      88      444        3    -0.14241   21.08226   12.16659   14.85755
      89      444        3    -0.14241   20.61277   12.59136   16.09644
      90      444        3     0.70654   21.73271   10.36629   13.22497
      91      444        3     0.18242   10.29625   14.42007    1.35035
      92      444        3    -0.14241    8.91400   14.29096    1.38533
      93      444        3    -0.07071    8.12281   14.89643    0.39109
      94      444        3    -0.14241    9.31767    5.03158   21.11979
      95      444        3     0.18242   10.69986    5.11523   21.14999
      96      444        4    -0.14241    6.67447   14.74238    0.43998
      97      444        3     0.70654   20.44252   10.33626    9.74621
      98      444        3    -0.07071   19.10567   10.61781    9.12937
      99      444        3    -0.14241   18.13196    9.61203    9.05637
     100      444        3    -0.14241   16.89581    9.86139    8.46473
     101      444        3     0.30616   16.63031   11.12905    7.94437
     102      444        3    -0.14241   17.57965   12.15329    8.02693
     103      444        3    -0.14241   18.81331   11.89001    8.61530
     104      444        3     0.30616   15.23945   11.96042    6.18228
     105      444        3    -0.14241   14.01180   12.57760    5.91395
     106      444        3    -0.14241   13.79795   13.17191    4.67463
     107      444        3    -0.07071   14.80148   13.17260    3.69407
     108      444        3    -0.14241   16.01836   12.53753    3.97848
     109      444        3    -0.14241   16.24326   11.92454    5.20694
     110      444        3     0.70654   14.58521   13.83932    2.37175
     111      444        3     0.18242   20.63955    6.18432   12.20530
     112      444        3    -0.14241   19.99030    4.95741   12.24354
     113      444        3    -0.07071   20.24572    3.99242   11.25148
     114      444        3    -0.14241    4.93083    4.33903   10.25050
     115      444        3     0.18242    5.53826    5.58321   10.27701
     116      444        4    -0.14241   19.54894    2.71360   11.30384
     117      444        3     0.70654    8.41896    2.36839    1.08897
     118      444        3    -0.07071    8.67604    3.71471    1.69581
     119      444        3    -0.14241    9.97940    4.22659    1.76034
     120      444        3    -0.14241   10.22904    5.46272    2.35220
     121      444        3     0.30616    9.16452    6.19424    2.88082
     122      444        3    -0.14241    7.85283    5.71432    2.80282
     123      444        3    -0.14241    7.61718    4.47510    2.21445
     124      444        3     0.30616    8.95119    7.77568    4.66289
     125      444        3    -0.14241    8.85352    9.14217    4.95100
     126      444        3    -0.14241    8.39854    9.54970    6.20053
     127      444        3    -0.07071    8.02168    8.60911    7.17087
     128      444        3    -0.14241    8.14205    7.24592    6.86778
     129      444        3    -0.14241    8.61096    6.82094    5.62889
     130      444        3     0.70654    7.49288    9.04706    8.50015
     131      444        3     0.18242   18.92793    4.99243   20.37607
     132      444        3    -0.14241   20.31012    5.12174   20.34109
     133      444        3    -0.07071   21.10126    4.51632   21.33533
     134      444        3    -0.14241   19.90642   14.38132    0.60684
     135      444        3     0.18242   18.52404   14.29735    0.57577
     136      444        4    -0.14241   22.54962    4.67051   21.28666
     137      444        5    -0.27998   23.94175   12.91698   10.48559
     138      444        5    -0.27998    4.69350    0.11698    0.38588
     139      444        5    -0.27998    5.28223    6.49561   11.23974
     140      444        5    -0.27998   24.53054   19.29559   21.34032
     141      444        6    -0.61602    8.58653   10.25144   11.53284
     142      444        6    -0.61602    7.93978    8.11643   11.95218
     143      444        7    -0.26873   13.86191    8.06508   14.31111
     144      444        6    -0.61602   15.82305    5.18557   19.63169
     145      444        6    -0.61602   13.61798    5.43593   20.10600
     146      444        6    -0.61602   19.79573   17.67196   21.09611
     147      444        6    -0.61602   22.00937   17.46099   20.64071
     148      444        7    -0.26873   19.77172   11.96704   18.30741
     149      444        6    -0.61602   21.64207    9.12679   12.93491
     150      444        6    -0.61602   22.24461   11.26725   12.48124
     151      444        6    -0.61602   20.63168    9.16295   10.20531
     152      444        6    -0.61602   21.28915   11.28957    9.76142
     153      444        7    -0.26873   15.36229   11.34839    7.41531
     154      444        6    -0.61602   13.40102   14.22415    2.09256
     155      444        6    -0.61602   15.60710   13.97816    1.62086
     156      444        6    -0.61602    9.42703    1.74169    0.62596
     157      444        6    -0.61602    7.21444    1.95043    1.08723
     158      444        7    -0.26873    9.45306    7.44489    3.41814
     159      444        6    -0.61602    7.59725   10.28415    8.79564
     160      444        6    -0.61602    6.96888    8.14897    9.23909
     161      444        1     0.94448   29.88518   15.42360   32.33455
     162      444        1     0.94448   13.51131    4.53848   21.99301
     163      444        1     0.94448   12.83679   12.81176   32.84514
     164      444        1     0.94448   29.20995   23.69675   43.18755
     165      444        2     0.11206   17.60423   15.19469   33.99191
     166      444        2     0.11206   19.84078   14.73621   35.06067
     167      444        2     0.11206   18.62654   10.68382   35.82525
     168      444        2     0.11206   16.40279   11.15460   34.76105
     169      444        2     0.11206   22.72876   11.24655   36.76605
     170      444        2     0.11206   23.12229   10.16327   39.00200
     171      444        2     0.11206   19.18441   11.30616   40.24328
     172      444        2     0.11206   18.78677   12.40366   38.04144
     173      444        2     0.11206   15.51152   16.86284   30.50446
     174      444        2     0.11206   16.69574   19.07513   30.41212
     175      444        2     0.11206   30.79218   20.17306   34.00951
     176      444        2     0.11206   29.72521   17.92294   33.94020
     177      444        2     0.11206   17.11323   21.22287   31.30989
     178      444        2     0.11206   25.17910   20.19225   42.10314
     179      444        2     0.11206   24.73563   17.95310   41.03350
     180      444        2     0.11206   28.93900   17.51486   40.24654
     181      444        2     0.11206   29.36615   19.74842   41.30944
     182      444        2     0.11206   26.83498   13.96108   39.26773
     183      444        2     0.11206   27.66519   13.21527   37.01352
     184      444        2     0.11206   28.09982   17.30759   35.82265
     185      444        2     0.11206   27.25863   18.06382   38.04491
     186      444        2     0.11206   17.69284   18.36929   23.82310
     187      444        2     0.11206   15.19562   18.12346   23.91001
     188      444        2     0.11206   15.52827    9.93748   42.03991
     189      444        2     0.11206   18.01516   10.05929   42.11357
     190      444        2     0.11206   12.91406   18.55643   23.00485
     191      444        2     0.11206   25.11566   13.04131   31.19082
     192      444        2     0.11206   22.87947   13.50037   30.12162
     193      444        2     0.11206   24.09594   17.55170   29.35509
     194      444        2     0.11206   26.32024   17.07973   30.41755
     195      444        2     0.11206   19.99240   16.98881   28.41429
     196      444        2     0.11206   19.59849   18.07108   26.17704
     197      444        2     0.11206   23.53708   16.92969   24.93641
     198      444        2     0.11206   23.93516   15.83301   27.13999
     199      444        2     0.11206   27.21034   11.37351   34.67632
     200      444        2     0.11206   26.02591    9.16133   34.76931
     201      444        2     0.11206   11.92902    8.06222   31.17192
     202      444        2     0.11206   12.99575   10.31226   31.23993
     203      444        2     0.11206   25.55133    6.87713   33.87067
     204      444        2     0.11206   17.54176    8.04321   23.07568
     205      444        2     0.11206   17.98578   10.28212   24.14575
     206      444        2     0.11206   13.78277   10.72020   24.93467
     207      444        2     0.11206   13.35516    8.48672   23.87199
     208      444        2     0.11206   15.88849   14.27398   25.91240
     209      444        2     0.11206   15.05954   15.02021   28.16704
     210      444        2     0.11206   14.62009   10.92800   29.35682
     211      444        2     0.11206   15.46221   10.17149   27.13499
     212      444        2     0.11206   25.02858    9.86613   41.35767
     213      444        2     0.11206   27.52578   10.11220   41.27098
     214      444        2     0.11206   27.19306   18.29856   23.14130
     215      444        2     0.11206   24.70623   18.17660   23.06764
     216      444        2     0.11206   29.66692    9.67947   42.17636
     217      444        3     0.70654   15.52989   13.48600   33.70750
     218      444        3    -0.07071   16.86726   13.20551   34.32368
     219      444        3    -0.14241   17.83973   14.21235   34.39864
     220      444        3    -0.14241   19.07629   13.96322   34.98962
     221      444        3     0.30616   19.34244   12.69546   35.50934
     222      444        3    -0.14241   18.39393   11.67063   35.42612
     223      444        3    -0.14241   17.16026   11.93340   34.83753
     224      444        3     0.30616   20.73332   11.86403   37.27099
     225      444        3    -0.14241   21.96091   11.24639   37.53932
     226      444        3    -0.14241   22.17479   10.65178   38.77843
     227      444        3    -0.07071   21.17147   10.65131   39.75920
     228      444        3    -0.14241   19.95479   11.28700   39.47522
     229      444        3    -0.14241   19.72980   11.90015   38.24676
     230      444        3     0.70654   21.38786    9.98409   41.08109
     231      444        3     0.18242   15.33340   17.64033   31.24818
     232      444        3    -0.14241   15.98258   18.86725   31.21038
     233      444        3    -0.07071   15.72706   19.83196   32.20288
     234      444        3    -0.14241   31.04051   19.48412   33.19930
     235      444        3     0.18242   30.43428   18.24066   33.17605
     236      444        4    -0.14241   16.42370   21.11074   32.15052
     237      444        3     0.70654   27.55313   21.45536   42.36386
     238      444        3    -0.07071   27.29626   20.10930   41.75637
     239      444        3    -0.14241   25.99305   19.59701   41.69206
     240      444        3    -0.14241   25.74367   18.36100   41.09999
     241      444        3     0.30616   26.80822   17.62918   40.57136
     242      444        3    -0.14241   28.12010   18.10932   40.65067
     243      444        3    -0.14241   28.35554   19.34838   41.23948
     244      444        3     0.30616   27.02232   16.04793   38.78973
     245      444        3    -0.14241   27.12028   14.68132   38.50075
     246      444        3    -0.14241   27.57709   14.27424   37.25274
     247      444        3    -0.07071   27.95213   15.21500   36.28175
     248      444        3    -0.14241   27.83089   16.57812   36.58484
     249      444        3    -0.14241   27.36140   17.00289   37.82373
     250      444        3     0.70654   28.48135   14.77781   34.95225
     251      444        3     0.18242   17.04488   18.83160   23.07764
     252      444        3    -0.14241   15.66263   18.70248   23.11262
     253      444        3    -0.07071   14.87145   19.30796   22.11838
     254      444        3    -0.14241   16.06631    9.44311   42.84708
     255      444        3     0.18242   17.44849    9.52676   42.87728
     256      444        4    -0.14241   13.42311   19.15391   22.16726
     257      444        3     0.70654   27.19115   14.74779   31.47350
     258      444        3    -0.07071   25.85430   15.02933   30.85666
     259      444        3    -0.14241   24.88059   14.02356   30.78366
     260      444        3    -0.14241   23.64445   14.27292   30.19202
     261      444        3     0.30616   23.37894   15.54058   29.67165
     262      444        3    -0.14241   24.32829   16.56481   29.75422
     263      444        3    -0.14241   25.56194   16.30153   30.34259
     264      444        3     0.30616   21.98808   16.37195   27.90957
     265      444        3    -0.14241   20.76043   16.98913   27.64124
     266      444        3    -0.14241   20.54658   17.58344   26.40191
     267      444        3    -0.07071   21.55011   17.58413   25.42136
     268      444        3    -0.14241   22.76700   16.94906   25.70577
     269      444        3    -0.14241   22.99189   16.33607   26.93423
     270      444        3     0.70654   21.33384   18.25084   24.09904
     271      444        3     0.18242   27.38818   10.59585   33.93259
     272      444        3    -0.14241   26.73894    9.36894   33.97083
     273      444        3    -0.07071   26.99435    8.40394   32.97876
     274      444        3    -0.14241   11.67947    8.75055   31.97779
     275      444        3     0.18242   12.28689    9.99473   32.00429
     276      444        4    -0.14241   26.29757    7.12513   33.03113
     277      444        3     0.70654   15.16759    6.77991   22.81626
     278      444        3    -0.07071   15.42467    8.12623   23.42310
     279      444        3    -0.14241   16.72803    8.63812   23.48763
     280      444        3    -0.14241   16.97767    9.87425   24.07948
     281      444        3     0.30616   15.91316   10.60577   24.60811
     282      444        3    -0.14241   14.60147   10.12585   24.53011
     283      444        3    -0.14241   14.36582    8.88663   23.94173
     284      444        3     0.30616   15.69982   12.18721   26.39018
     285      444        3    -0.14241   15.60216   13.55369   26.67828
     286      444        3    -0.14241   15.14717   13.96123   27.92782
     287      444        3    -0.07071   14.77032   13.02064   28.89816
     288      444        3    -0.14241   14.89068   11.65744   28.59507
     289      444        3    -0.14241   15.35959   11.23246   27.35618
     290      444        3     0.70654   14.24151   13.45859   30.22744
     291      444        3     0.18242   25.67656    9.40396   42.10335
     292      444        3    -0.14241   27.05876    9.53327   42.06837
     293      444        3    -0.07071   27.84990    8.92784   43.06261
     294      444        3    -0.14241   26.65506   18.79285   22.33413
     295      444        3     0.18242   25.27267   18.70888   22.30306
     296      444        4    -0.14241   29.29825    9.08204   43.01395
     297      444        5    -0.27998   30.69038   17.32850   32.21288
     298      444        5    -0.27998   11.44213    4.52851   22.11316
     299      444        5    -0.27998   12.03086   10.90713   32.96703
     300      444        5    -0.27998   31.27917   23.70711   43.06761
     301      444        6    -0.61602   15.33516   14.66296   33.26013
     302      444        6    -0.61602   14.68841   12.52796   33.67947
     303      444        7    -0.26873   20.61054   12.47660   36.03840
     304      444        6    -0.61602   22.57168    9.59710   41.35898
     305      444        6    -0.61602   20.36661    9.84746   41.83328
     306      444        6    -0.61602   26.54436   22.08348   42.82340
     307      444        6    -0.61602   28.75800   21.87252   42.36799
     308      444        7    -0.26873   26.52035   16.37857   40.03470
     309      444        6    -0.61602   28.39070   13.53832   34.66219
     310      444        6    -0.61602   28.99324   15.67877   34.20853
     311      444        6    -0.61602   27.38031   13.57448   31.93259
     312      444        6    -0.61602   28.03779   15.70109   31.48871
     313      444        7    -0.26873   22.11092   15.75992   29.14259
     314      444        6    -0.61602   20.14965   18.63568   23.81984
     315      444        6    -0.61602   22.35573   18.38969   23.34814
     316      444        6    -0.61602   16.17566    6.15322   22.35325
     317      444        6    -0.61602   13.96307    6.36195   22.81452
     318      444        7    -0.26873   16.20170   11.85642   25.14542
     319      444        6    -0.61602   14.34588   14.69568   30.52293
     320      444        6    -0.61602   13.71751   12.56050   30.96638
     321      444        1     0.94448   29.36895   26.01398   10.60726
     322      444        1     0.94448   12.99509   15.12886    0.26572
     323      444        1     0.94448   12.32056   23.40214   11.11785
     324      444        1     0.94448   28.69373   34.28713   21.46026
     325      444        2     0.11206   17.08800   25.78507   12.26462
     326      444        2     0.11206   19.32456   25.32658   13.33338
     327      444        2     0.11206   18.11031   21.27420   14.09797
     328      444        2     0.11206   15.88657   21.74498   13.03377
     329      444        2     0.11206   22.21254   21.83693   15.03876
     330      444        2     0.11206   22.60607   20.75365   17.27471
     331      444        2     0.11206   18.66819   21.89654   18.51599
     332      444        2     0.11206   18.27054   22.99404   16.31415
     333      444        2     0.11206   14.99529   27.45322    8.77717
     334      444        2     0.11206   16.17952   29.66551    8.68483
     335      444        2     0.11206   30.27595   30.76344   12.28222
     336      444        2     0.11206   29.20898   28.51332   12.21291
     337      444        2     0.11206   16.59700   31.81325    9.58260
     338      444        2     0.11206   24.66287   30.78263   20.37585
     339      444        2     0.11206   24.21940   28.54348   19.30622
     340      444        2     0.11206   28.42277   28.10524   18.51925
     341      444        2     0.11206   28.84992   30.33879   19.58215
     342      444        2     0.11206   26.31875   24.55146   17.54044
     343      444        2     0.11206   27.14897   23.80565   15.28623
     344      444        2     0.11206   27.58359   27.89797   14.09536
     345      444        2     0.11206   26.74241   28.65420   16.31763
     346      444        2     0.11206   17.17661   28.95967    2.09581
     347      444        2     0.11206   14.67940   28.71384    2.18272
     348      444        2     0.11206   15.01204   20.52785   20.31262
     349      444        2     0.11206   17.49894   20.64967   20.38628
     350      444        2     0.11206   12.39783   29.14681    1.27756
     351      444        2     0.11206   24.59943   23.63169    9.46354
     352      444        2     0.11206   22.36324   24.09075    8.39434
     353      444        2     0.11206   23.57971   28.14208    7.62780
     354      444        2     0.11206   25.80402   27.67011    8.69026
     355      444        2     0.11206   19.47617   27.57919    6.68701
     356      444        2     0.11206   19.08227   28.66146    4.44975
     357      444        2     0.11206   23.02085   27.52007    3.20912
     358      444        2     0.11206   23.41893   26.42338    5.41270
     359      444        2     0.11206   26.69412   21.96389   12.94903
     360      444        2     0.11206   25.50968   19.75170   13.04202
     361      444        2     0.11206   11.41279   18.65260    9.44463
     362      444        2     0.11206   12.47953   20.90264    9.51264
     363      444        2     0.11206   25.03510   17.46751   12.14338