Created on Tue Feb 06 15:34:32 2018 

        1728 atoms
        1920 bonds
        3264 angles
        4224 dihedrals
        2592 impropers

           8 atom types
          18 bond types
          35 angle types
           7 dihedral types
           1 improper types
           0.000000  26.511001 xlo xhi
           0.000000  31.353898 ylo yhi
           0.000000  38.887992 zlo zhi
          -0.079896  -0.008145  -0.023777 xy xz yz

Masses

    1    65.380000000 # Zn3f2
    2     1.007940000 # H_
    3    12.010700000 # C_2
    4    12.010700000 # C_R
    5    12.010700000 # C_3
    6    14.006700000 # N_3
    7    14.006700000 # N_R
    8    15.999400000 # O_R

Bond Coeffs

    1      148.759211        1.886642  # Zn3f2 O_R
    2      154.048673        1.928536  # Zn3f2 N_R
    3      357.440381        1.081418  # H_ C_R
    4      331.069389        1.109401  # H_ C_3
    5      527.945261        1.044419  # H_ N_3
    6      354.483902        1.084416  # H_ C_2
    7      367.712375        1.489000  # C_2 C_3
    8      517.346067        1.328833  # C_2 C_2
    9      560.312976        1.423192  # C_R N_3
   10      462.655054        1.379256  # C_R C_R
   11      556.800015        1.426179  # C_2 N_3
   12      520.539552        1.326110  # C_2 C_R
   13      663.718927        1.345073  # C_R N_R
   14      369.943935        1.486000  # C_3 C_R
   15      646.680887        1.311940  # C_R O_R
   16      456.989953        1.384932  # C_2 C_2
   17      459.810871        1.382094  # C_2 C_R
   18      783.189165        1.400000  # N_3 N_3

Angle Coeffs

    1                      fourier       49.333327        0.343737        0.374972        0.281246 # N_R Zn3f2 N_R
    2                      fourier       47.099941        0.343737        0.374972        0.281246 # N_R Zn3f2 O_R
    3                      fourier       45.004281        0.343737        0.374972        0.281246 # O_R Zn3f2 O_R
    4              cosine/periodic      105.100716              -1               3 # C_3 C_2 C_2
    5              cosine/periodic       84.775358              -1               3 # H_ C_2 C_2
    6              cosine/periodic       61.230037              -1               3 # H_ C_2 C_3
    7              cosine/periodic      143.849776              -1               3 # N_3 C_R C_R
    8              cosine/periodic      117.010657              -1               3 # C_R C_R C_R
    9              cosine/periodic      156.620903              -1               3 # N_3 C_2 C_2
   10              cosine/periodic      157.393762              -1               3 # N_3 C_2 C_R
   11              cosine/periodic      141.685158              -1               3 # C_R C_2 C_2
   12              cosine/periodic       76.817955              -1               3 # C_R C_R H_
   13              cosine/periodic      109.704024              -1               3 # N_R C_R H_
   14              cosine/periodic      165.695700              -1               3 # C_R C_R N_R
   15                      fourier       61.342703        0.343737        0.374972        0.281246 # H_ C_3 H_
   16                      fourier       73.868412        0.343737        0.374972        0.281246 # H_ C_3 C_R
   17                      fourier       73.425056        0.343737        0.374972        0.281246 # H_ C_3 C_2
   18                      fourier      102.078857        0.343737        0.374972        0.281246 # C_2 C_3 C_R
   19              cosine/periodic      217.450257              -1               3 # O_R C_R O_R
   20              cosine/periodic      130.962624              -1               3 # O_R C_R C_3
   21              cosine/periodic      175.962967              -1               3 # O_R C_R C_2
   22              cosine/periodic       75.474778              -1               3 # H_ C_2 C_2
   23              cosine/periodic       95.289992              -1               3 # C_3 C_2 C_2
   24              cosine/periodic      142.364096              -1               3 # C_R C_2 N_3
   25              cosine/periodic      115.221501              -1               3 # C_R C_2 C_2
   26              cosine/periodic      141.648245              -1               3 # C_2 C_2 N_3
   27              cosine/periodic      158.393079              -1               3 # O_R C_R C_2
   28                      fourier      141.650159        0.317506        0.313225        0.272502 # N_3 N_3 H_
   29                      fourier      189.206052        0.317506        0.313225        0.272502 # N_3 N_3 C_R
   30                      fourier      101.300868        0.317506        0.313225        0.272502 # C_R N_3 H_
   31                      fourier      135.797920        0.317506        0.313225        0.272502 # C_R N_3 C_2
   32                      fourier      188.204732        0.317506        0.313225        0.272502 # N_3 N_3 C_2
   33              cosine/periodic      132.654363              -1               3 # C_R N_R C_R
   34              cosine/periodic       33.704159              -1               3 # C_R N_R Zn3f2
   35              cosine/periodic       46.721183              -1               3 # Zn3f2 O_R C_R

Dihedral Coeffs

    1        0.083333               1               3 # C_2 C_2 C_3 C_R
    2        2.165197              -1               2 # C_3 C_2 C_2 N_3
    3        0.111111               1               3 # C_R C_R N_3 H_
    4        1.497136              -1               2 # N_3 C_R C_R H_
    5        0.416667              -1               2 # H_ C_3 C_R O_R
    6        2.245703              -1               2 # C_3 C_R O_R Zn3f2
    7        0.025000               1               3 # H_ N_3 N_3 C_R

Improper Coeffs

    1        2.000000        1.000000       -1.000000        0.000000               0 # C_2 C_2 H_ C_3

Pair Coeffs

    1        0.124000        2.461553 # Zn3f2 Zn3f2
    2        0.044000        2.571134 # H_ H_
    3        0.105000        3.430851 # C_2 C_2
    4        0.105000        3.430851 # C_R C_R
    5        0.105000        3.430851 # C_3 C_3
    6        0.069000        3.260689 # N_3 N_3
    7        0.069000        3.260689 # N_R N_R
    8        0.060000        3.118146 # O_R O_R

Atoms

       1      444        1     0.87894    3.15476   14.85034    1.40977
       2      444        1     0.87926    1.21728    0.81931   11.13196
       3      444        1     0.87860    5.66442    7.00421    8.25613
       4      444        1     0.87916    7.58368    8.65828   17.98218
       5      444        2     0.14578    6.41472    2.09720    9.63816
       6      444        2     0.16318    1.23711   15.46327    6.07788
       7      444        2     0.08491    6.78937    4.55499    9.60819
       8      444        2     0.15011    7.36838   13.92044    8.12469
       9      444        2     0.11754    6.88645   15.49675    7.48133
      10      444        2     0.10010    1.20718   15.13059    3.59714
      11      444        2     0.15213    3.24218    2.72404    6.74961
      12      444        2     0.08382    3.75341    5.13564    6.84452
      13      444        2     0.10047    5.33608    0.09446    3.31503
      14      444        2     0.14192    5.53397    0.51136    5.75542
      15      444        2     0.29512    2.53060    0.41181    8.01396
      16      444        2     0.11890    6.13162   14.41251   10.30652
      17      444        2     0.14525    6.79756   13.56067   19.35868
      18      444        2     0.16325    3.13019    0.21149   15.80173
      19      444        2     0.08542    6.44495   11.11190    0.00000
      20      444        2     0.15027    5.83497    1.74965   17.85970
      21      444        2     0.11769    6.31918    0.17864   17.20484
      22      444        2     0.09990    3.16180    0.54290   13.32091
      23      444        2     0.15224    1.13677   12.95210   16.47035
      24      444        2     0.08436    0.64342   10.53726   16.56938
      25      444        2     0.10078    7.87097   15.57382   13.03560
      26      444        2     0.14215    7.67147   15.15842   15.47629
      27      444        2     0.29492    1.83706   15.25860   17.73537
      28      444        2     0.11813    7.07692    1.25905    0.59188
      29      444        2     0.14610    2.38726    9.94214    0.04278
      30      444        2     0.16324    7.54350    7.64893    3.57701
      31      444        2     0.08605    2.01910   12.40043    0.06724
      32      444        2     0.15032    1.38309    6.09148    1.53617
      33      444        2     0.11790    1.87791    7.65736    2.19787
      34      444        2     0.09994    7.59479    7.31074    6.05692
      35      444        2     0.15216    5.56670   10.56763    2.92401
      36      444        2     0.08353    5.06255   12.98043    2.82249
      37      444        2     0.10098    3.50332    7.91986    6.37055
      38      444        2     0.14214    3.28345    8.33947    3.93237
      39      444        2     0.29483    6.27458    8.26739    1.65389
      40      444        2     0.11915    2.61864    6.58354   18.80586
      41      444        2     0.14617    2.00775    5.72359    9.76746
      42      444        2     0.16315    5.69537    8.02064   13.30531
      43      444        2     0.08531    2.36253    3.26330    9.79009
      44      444        2     0.15069    3.02240    9.57553   11.25523
      45      444        2     0.11804    2.52756    8.00893   11.91509
      46      444        2     0.10044    5.64767    8.35086   15.78683
      47      444        2     0.15200    7.65984    5.11322   12.64593
      48      444        2     0.08381    8.15092    2.69803   12.54313
      49      444        2     0.10089    0.90388    7.74893   16.09121
      50      444        2     0.14183    1.12002    7.33717   13.65138
      51      444        2     0.29503    6.96358    7.40750   11.37882
      52      444        2     0.11892    1.78135    9.07250    9.07984
      53      444        3     0.03304    6.00518   14.97669    9.38099
      54      444        4     0.32107    3.41734    0.15129    6.13347
      55      444        3    -0.15058    4.90313   -0.00361    9.29203
      56      444        4     0.24270    4.78863    2.18442    8.18905
      57      444        4    -0.27968    5.80171    2.73475    9.00366
      58      444        4    -0.29645    2.15443   15.51608    5.49161
      59      444        4     0.17117    6.01258    4.10167    8.99302
      60      444        5    -0.34986    7.12681   14.95953    8.40719
      61      444        4     0.71145    8.43012   15.55120    8.98225
      62      444        4     0.16273    2.13899   15.31555    4.13020
      63      444        4    -0.29601    4.04077    3.07912    7.39513
      64      444        4     0.16446    4.32335    4.43095    7.45106
      65      444        4     0.15872    4.46294    0.01595    3.96477
      66      444        4    -0.32834    4.57177    0.24657    5.32396
      67      444        4     0.63747    3.88941    0.00580   10.41243
      68      444        3     0.03368    7.19941    0.68674   19.10851
      69      444        4     0.32040    0.95026   15.52141   15.85580
      70      444        3    -0.15066    8.34153   -0.00943   19.01683
      71      444        4     0.24394    8.42485   13.48270   17.91047
      72      444        4    -0.27517    7.41532   12.92645   18.72540
      73      444        4    -0.29613    2.21334    0.15756   15.21477
      74      444        4     0.15966    7.21467   11.55799   18.71743
      75      444        5    -0.35067    6.07795    0.70880   18.13450
      76      444        4     0.71143    4.77514    0.11178   18.70540
      77      444        4     0.16255    2.22974    0.35699   13.85322
      78      444        4    -0.29556    0.34118   12.59237   17.11694
      79      444        4     0.16271    0.06878   11.23862   17.17533
      80      444        4     0.15853    8.74343   15.65381   13.68610
      81      444        4    -0.32765    8.63369   15.42415   15.04543
      82      444        4     0.63732    0.52262   -0.00042    0.69246
      83      444        3     0.03357    2.75436    7.15136    0.29112
      84      444        4     0.31984    5.39978    7.99487    3.53725
      85      444        3    -0.15315    3.89717    7.84686    0.37986
      86      444        4     0.24235    4.01699   10.02858    1.48780
      87      444        4    -0.27823    3.00328   10.57954    0.67440
      88      444        4    -0.29628    6.62988    7.69170    4.16984
      89      444        4     0.16945    2.79633   11.94697    0.68116
      90      444        5    -0.35088    1.63399    7.13181    1.26643
      91      444        4     0.71166    0.33692    7.74013    0.69310
      92      444        4     0.16244    6.65761    7.48841    5.53055
      93      444        4    -0.29563    4.76811   10.92310    2.27872
      94      444        4     0.16408    4.48958   12.27567    2.21889
      95      444        4     0.15788    4.37195    7.84834    5.71393
      96      444        4    -0.32692    4.25097    8.08075    4.35579
      97      444        4     0.63671    4.89734    7.85719   18.69503
      98      444        3     0.03327    1.64982    8.51780   10.01033
      99      444        4     0.31984    7.83986    7.67951   13.26119
     100      444        3    -0.15039    0.50544    7.82545   10.10244
     101      444        4     0.24301    0.37683    5.64508   11.21147
     102      444        4    -0.27898    1.38791    5.08920   10.39834
     103      444        4    -0.29610    6.61011    7.97823   13.89651
     104      444        4     0.16989    1.58726    3.72065   10.40413
     105      444        5    -0.35109    2.77116    8.53559   10.98419
     106      444        4     0.71105    4.06858    7.92813   10.41053
     107      444        4     0.16184    6.58430    8.17722   15.25801
     108      444        4    -0.29462    8.45721    4.75414   12.00111
     109      444        4     0.16384    8.72827    3.40008   11.94054
     110      444        4     0.15773    0.03395    7.82082   15.43636
     111      444        4    -0.32591    0.15294    7.59283   14.07747
     112      444        4     0.63522    8.33566    7.80329    8.97657
     113      444        6    -0.29251    3.41666    0.38336    7.47536
     114      444        6     0.04619    4.57316    0.81178    8.14175
     115      444        7    -0.37330    5.29070    4.96097    8.23296
     116      444        7    -0.38987    3.25337   15.38596    3.35277
     117      444        6    -0.29271    0.95028   15.29128   17.19814
     118      444        6     0.04580    8.63217   14.85677   17.86328
     119      444        7    -0.36525    7.94338   10.70269   17.95923
     120      444        7    -0.38981    1.11613    0.28462   13.07492
     121      444        6    -0.29318    5.39060    8.22581    2.19480
     122      444        6     0.04721    4.23089    8.65539    1.53425
     123      444        7    -0.37197    3.52304   12.80644    1.43641
     124      444        7    -0.38964    5.54855    7.54841    6.31656
     125      444        6    -0.29343    7.84869    7.45427   11.91777
     126      444        6     0.04505    0.17051    7.01965   11.25854
     127      444        7    -0.37231    0.85528    2.86465   11.15817
     128      444        7    -0.38981    7.69503    8.11692   16.04170
     129      444        8    -0.62899    8.48491   -0.00017   10.27357
     130      444        8    -0.59783    0.55165    0.17811    8.19944
     131      444        8    -0.57105    3.99640   14.98839   11.42502
     132      444        8    -0.62811    2.89587    0.82354   10.16178
     133      444        8    -0.62897    4.76220   -0.00034    0.55190
     134      444        8    -0.59769    3.81896   15.48383   17.92017
     135      444        8    -0.56624    0.37683    0.68134    1.70668
     136      444        8    -0.63236    1.47539   14.84784    0.43961
     137      444        8    -0.62932    0.31042    7.83151   18.84454
     138      444        8    -0.59685    8.26705    8.07486    1.47708
     139      444        8    -0.56980    4.72803    7.19266   17.66582
     140      444        8    -0.62887    5.90605    8.65190   18.95638
     141      444        8    -0.62925    4.09393    7.82702    9.11748
     142      444        8    -0.59747    4.97346    7.59238   11.19663
     143      444        8    -0.56985    8.49541    8.47171    7.94845
     144      444        8    -0.62651    7.33210    7.00242    9.23878
     145      444        1     0.87894    3.15068   14.83845   20.85376
     146      444        1     0.87926    1.21321    0.80742   30.57596
     147      444        1     0.87860    5.66035    6.99232   27.70013
     148      444        1     0.87916    7.57961    8.64639   37.42617
     149      444        2     0.14578    6.41064    2.08531   29.08215
     150      444        2     0.16318    1.23304   15.45138   25.52188
     151      444        2     0.08491    6.78530    4.54310   29.05219
     152      444        2     0.15011    7.36431   13.90855   27.56869
     153      444        2     0.11754    6.88238   15.48486   26.92533
     154      444        2     0.10010    1.20311   15.11870   23.04114
     155      444        2     0.15213    3.23811    2.71215   26.19361
     156      444        2     0.08382    3.74933    5.12376   26.28852
     157      444        2     0.10047    5.33200    0.08258   22.75902
     158      444        2     0.14192    5.52990    0.49947   25.19942
     159      444        2     0.29512    2.52652    0.39992   27.45796
     160      444        2     0.11890    6.12755   14.40062   29.75052
     161      444        2     0.14525    6.79348   13.54878   38.80267
     162      444        2     0.16325    3.12611    0.19960   35.24572
     163      444        2     0.08542    6.44087   11.10001   19.44400
     164      444        2     0.15027    5.83090    1.73776   37.30370
     165      444        2     0.11769    6.31510    0.16675   36.64884
     166      444        2     0.09990    3.15773    0.53101   32.76490
     167      444        2     0.15224    1.13270   12.94021   35.91434
     168      444        2     0.08436    0.63935   10.52537   36.01337
     169      444        2     0.10078    7.86690   15.56193   32.47960
     170      444        2     0.14215    7.66739   15.14654   34.92029
     171      444        2     0.29492    1.83299   15.24671   37.17937
     172      444        2     0.11813    7.07285    1.24716   20.03587
     173      444        2     0.14610    2.38319    9.93025   19.48677
     174      444        2     0.16324    7.53943    7.63704   23.02101
     175      444        2     0.08605    2.01503   12.38854   19.51123
     176      444        2     0.15032    1.37901    6.07960   20.98017
     177      444        2     0.11790    1.87384    7.64547   21.64187
     178      444        2     0.09994    7.59072    7.29885   25.50092
     179      444        2     0.15216    5.56263   10.55574   22.36800
     180      444        2     0.08353    5.05848   12.96855   22.26649
     181      444        2     0.10098    3.49925    7.90797   25.81455
     182      444        2     0.14214    3.27938    8.32758   23.37637
     183      444        2     0.29483    6.27050    8.25550   21.09788
     184      444        2     0.11915    2.61456    6.57165   38.24986
     185      444        2     0.14617    2.00368    5.71170   29.21145
     186      444        2     0.16315    5.69130    8.00875   32.74931
     187      444        2     0.08531    2.35846    3.25141   29.23409
     188      444        2     0.15069    3.01832    9.56364   30.69923
     189      444        2     0.11804    2.52349    7.99705   31.35908
     190      444        2     0.10044    5.64359    8.33898   35.23083
     191      444        2     0.15200    7.65576    5.10133   32.08992
     192      444        2     0.08381    8.14684    2.68614   31.98712
     193      444        2     0.10089    0.89980    7.73705   35.53521
     194      444        2     0.14183    1.11595    7.32528   33.09537
     195      444        2     0.29503    6.95950    7.39561   30.82282
     196      444        2     0.11892    1.77728    9.06061   28.52384
     197      444        3     0.03304    6.00111   14.96480   28.82499
     198      444        4     0.32107    3.41327    0.13941   25.57747
     199      444        3    -0.15058    4.89906   -0.01550   28.73603
     200      444        4     0.24270    4.78456    2.17253   27.63305
     201      444        4    -0.27968    5.79763    2.72286   28.44765
     202      444        4    -0.29645    2.15036   15.50420   24.93560
     203      444        4     0.17117    6.00850    4.08979   28.43702
     204      444        5    -0.34986    7.12273   14.94764   27.85119
     205      444        4     0.71145    8.42605   15.53931   28.42625
     206      444        4     0.16273    2.13491   15.30366   23.57419
     207      444        4    -0.29601    4.03669    3.06723   26.83913
     208      444        4     0.16446    4.31927    4.41907   26.89505
     209      444        4     0.15872    4.45887    0.00406   23.40876
     210      444        4    -0.32834    4.56769    0.23468   24.76796
     211      444        4     0.63747    3.88534   -0.00609   29.85643
     212      444        3     0.03368    7.19534    0.67485   38.55251
     213      444        4     0.32040    0.94618   15.50952   35.29980
     214      444        3    -0.15066    8.33746   -0.02132   38.46083
     215      444        4     0.24394    8.42077   13.47081   37.35446
     216      444        4    -0.27517    7.41124   12.91457   38.16940
     217      444        4    -0.29613    2.20927    0.14567   34.65877
     218      444        4     0.15966    7.21060   11.54610   38.16143
     219      444        5    -0.35067    6.07388    0.69691   37.57850
     220      444        4     0.71143    4.77106    0.09990   38.14939
     221      444        4     0.16255    2.22566    0.34510   33.29722
     222      444        4    -0.29556    0.33711   12.58049   36.56093
     223      444        4     0.16271    0.06471   11.22673   36.61932
     224      444        4     0.15853    8.73936   15.64192   33.13010
     225      444        4    -0.32765    8.62962   15.41226   34.48943
     226      444        4     0.63732    0.51854   -0.01231   20.13645
     227      444        3     0.03357    2.75029    7.13948   19.73511
     228      444        4     0.31984    5.39571    7.98298   22.98125
     229      444        3    -0.15315    3.89310    7.83498   19.82385
     230      444        4     0.24235    4.01292   10.01669   20.93179
     231      444        4    -0.27823    2.99921   10.56765   20.11839
     232      444        4    -0.29628    6.62580    7.67981   23.61384
     233      444        4     0.16945    2.79226   11.93508   20.12516
     234      444        5    -0.35088    1.62992    7.11993   20.71042
     235      444        4     0.71166    0.33284    7.72824   20.13710
     236      444        4     0.16244    6.65353    7.47652   24.97455
     237      444        4    -0.29563    4.76404   10.91122   21.72272
     238      444        4     0.16408    4.48551   12.26378   21.66289
     239      444        4     0.15788    4.36788    7.83645   25.15793
     240      444        4    -0.32692    4.24689    8.06886   23.79978
     241      444        4     0.63671    4.89327    7.84530   38.13903
     242      444        3     0.03327    1.64575    8.50591   29.45433
     243      444        4     0.31984    7.83579    7.66762   32.70519
     244      444        3    -0.15039    0.50137    7.81356   29.54644
     245      444        4     0.24301    0.37276    5.63319   30.65546
     246      444        4    -0.27898    1.38383    5.07731   29.84233
     247      444        4    -0.29610    6.60604    7.96635   33.34050
     248      444        4     0.16989    1.58318    3.70876   29.84813
     249      444        5    -0.35109    2.76709    8.52370   30.42818
     250      444        4     0.71105    4.06451    7.91624   29.85453
     251      444        4     0.16184    6.58023    8.16533   34.70201
     252      444        4    -0.29462    8.45314    4.74225   31.44510
     253      444        4     0.16384    8.72420    3.38820   31.38453
     254      444        4     0.15773    0.02988    7.80893   34.88035
     255      444        4    -0.32591    0.14886    7.58094   33.52147
     256      444        4     0.63522    8.33158    7.79141   28.42057
     257      444        6    -0.29251    3.41259    0.37147   26.91936
     258      444        6     0.04619    4.56909    0.79989   27.58574
     259      444        7    -0.37330    5.28663    4.94908   27.67695
     260      444        7    -0.38987    3.24930   15.37407   22.79676
     261      444        6    -0.29271    0.94621   15.27940   36.64213
     262      444        6     0.04580    8.62810   14.84488   37.30727
     263      444        7    -0.36525    7.93930   10.69080   37.40323
     264      444        7    -0.38981    1.11206    0.27273   32.51892
     265      444        6    -0.29318    5.38653    8.21392   21.63880
     266      444        6     0.04721    4.22681    8.64350   20.97824
     267      444        7    -0.37197    3.51896   12.79455   20.88040
     268      444        7    -0.38964    5.54447    7.53653   25.76055
     269      444        6    -0.29343    7.84461    7.44238   31.36177
     270      444        6     0.04505    0.16644    7.00776   30.70254
     271      444        7    -0.37231    0.85120    2.85276   30.60217
     272      444        7    -0.38981    7.69096    8.10503   35.48570
     273      444        8    -0.62899    8.48083   -0.01206   29.71756
     274      444        8    -0.59783    0.54758    0.16622   27.64343
     275      444        8    -0.57105    3.99233   14.97650   30.86902
     276      444        8    -0.62811    2.89179    0.81165   29.60578
     277      444        8    -0.62897    4.75812   -0.01223   19.99589
     278      444        8    -0.59769    3.81488   15.47194   37.36417
     279      444        8    -0.56624    0.37276    0.66945   21.15067
     280      444        8    -0.63236    1.47132   14.83595   19.88361
     281      444        8    -0.62932    0.30635    7.81963   38.28853
     282      444        8    -0.59685    8.26298    8.06297   20.92108
     283      444        8    -0.56980    4.72395    7.18077   37.10982
     284      444        8    -0.62887    5.90198    8.64001   38.40038
     285      444        8    -0.62925    4.08986    7.81513   28.56148
     286      444        8    -0.59747    4.96939    7.58049   30.64063
     287      444        8    -0.56985    8.49134    8.45982   27.39245
     288      444        8    -0.62651    7.32802    6.99053   28.68277
     289      444        1     0.87894    3.11481   30.52728    1.40977
     290      444        1     0.87926    1.17733   16.49626   11.13196
     291      444        1     0.87860    5.62447   22.68116    8.25613
     292      444        1     0.87916    7.54374   24.33523   17.98218
     293      444        2     0.14578    6.37477   17.77415    9.63816
     294      444        2     0.16318    1.19716   31.14022    6.07788
     295      444        2     0.08491    6.74942   20.23194    9.60819
     296      444        2     0.15011    7.32843   29.59739    8.12469
     297      444        2     0.11754    6.84650   31.17369    7.48133
     298      444        2     0.10010    1.16723   30.80754    3.59714
     299      444        2     0.15213    3.20224   18.40099    6.74961
     300      444        2     0.08382    3.71346   20.81259    6.84452
     301      444        2     0.10047    5.29613   15.77141    3.31503
     302      444        2     0.14192    5.49402   16.18831    5.75542
     303      444        2     0.29512    2.49065   16.08876    8.01396
     304      444        2     0.11890    6.09167   30.08946   10.30652
     305      444        2     0.14525    6.75761   29.23762   19.35868
     306      444        2     0.16325    3.09024   15.88844   15.80173
     307      444        2     0.08542    6.40500   26.78885    0.00000
     308      444        2     0.15027    5.79503   17.42660   17.85970
     309      444        2     0.11769    6.27923   15.85559   17.20484
     310      444        2     0.09990    3.12185   16.21985   13.32091
     311      444        2     0.15224    1.09683   28.62905   16.47035
     312      444        2     0.08436    0.60347   26.21421   16.56938
     313      444        2     0.10078    7.83103   31.25077   13.03560
     314      444        2     0.14215    7.63152   30.83537   15.47629
     315      444        2     0.29492    1.79711   30.93555   17.73537
     316      444        2     0.11813    7.03698   16.93599    0.59188
     317      444        2     0.14610    2.34732   25.61909    0.04278
     318      444        2     0.16324    7.50355   23.32588    3.57701
     319      444        2     0.08605    1.97915   28.07737    0.06724
     320      444        2     0.15032    1.34314   21.76843    1.53617
     321      444        2     0.11790    1.83796   23.33431    2.19787
     322      444        2     0.09994    7.55485   22.98769    6.05692
     323      444        2     0.15216    5.52675   26.24458    2.92401
     324      444        2     0.08353    5.02261   28.65738    2.82249
     325      444        2     0.10098    3.46338   23.59681    6.37055
     326      444        2     0.14214    3.24350   24.01642    3.93237
     327      444        2     0.29483    6.23463   23.94434    1.65389
     328      444        2     0.11915    2.57869   22.26049   18.80586
     329      444        2     0.14617    1.96780   21.40054    9.76746
     330      444        2     0.16315    5.65542   23.69759   13.30531