Created on Tue Feb 06 14:38:46 2018 

        2592 atoms
        3564 bonds
       11340 angles
        7128 dihedrals
        2430 impropers

           5 atom types
           6 bond types
          12 angle types
           5 dihedral types
           1 improper types
           0.000000  26.250001 xlo xhi
           0.000000  36.766754 ylo yhi
           0.000000  31.918419 zlo zhi
          -8.738734  -8.707337 -18.269734 xy xz yz

Masses

    1    40.078000000 # Ca6+2
    2     1.007940000 # H_
    3    12.010700000 # C_R
    4    12.010700000 # C_3
    5    15.999400000 # O_R

Bond Coeffs

    1      133.916156        2.302728  # Ca6+2 O_R
    2       34.840297        3.522000  # Ca6+2 Ca6+2
    3      331.069389        1.109401  # H_ C_3
    4      646.680887        1.311940  # C_R O_R
    5      369.943935        1.486000  # C_R C_3
    6      349.795899        1.514000  # C_3 C_3

Angle Coeffs

    1              cosine/periodic        7.436136               1               4 # Ca6+2 Ca6+2 O_R
    2              cosine/periodic       28.776304               1               4 # O_R Ca6+2 O_R
    3              cosine/periodic        2.979061               1               4 # Ca6+2 Ca6+2 Ca6+2
    4              cosine/periodic      217.450257              -1               3 # O_R C_R O_R
    5              cosine/periodic      130.962624              -1               3 # O_R C_R C_3
    6                      fourier       73.868412        0.343737        0.374972        0.281246 # C_R C_3 H_
    7                      fourier       69.847816        0.343737        0.374972        0.281246 # C_3 C_3 H_
    8                      fourier       61.342703        0.343737        0.374972        0.281246 # H_ C_3 H_
    9                      fourier       97.888497        0.343737        0.374972        0.281246 # C_R C_3 C_3
   10                      fourier       93.452663        0.343737        0.374972        0.281246 # C_3 C_3 C_3
   11              cosine/periodic       14.210343              -1               3 # Ca6+2 O_R Ca6+2
   12              cosine/periodic       40.137065              -1               3 # Ca6+2 O_R C_R

Dihedral Coeffs

    1        1.497136              -1               2 # C_3 C_R O_R Ca6+2
    2        2.245703              -1               2 # O_R C_R O_R Ca6+2
    3        0.083333               1               3 # O_R C_R C_3 C_3
    4        0.066219               1               3 # H_ C_3 C_3 H_
    5        0.416667              -1               2 # C_3 C_3 C_R O_R

Improper Coeffs

    1        2.000000        1.000000       -1.000000        0.000000               0 # O_R C_R O_R C_3

Pair Coeffs

    1        0.238000        3.028165 # Ca6+2 Ca6+2
    2        0.044000        2.571134 # H_ H_
    3        0.105000        3.430851 # C_R C_R
    4        0.105000        3.430851 # C_3 C_3
    5        0.060000        3.118146 # O_R O_R

Atoms

       1      444        1     1.57502   -2.93779    1.42431    6.63348
       2      444        1     1.57396    2.89646   -1.08394    6.10822
       3      444        1     1.57373   -0.02019   -0.28323    8.54553
       4      444        1     1.57502    5.87266    4.74155    4.00571
       5      444        1     1.57375    0.03836    7.24983    4.53096
       6      444        1     1.57385    2.95501    6.44908    2.09367
       7      444        2     0.12238    5.25215   -3.23891    9.61456
       8      444        2     0.11826    4.02965   -3.11582    8.32199
       9      444        2     0.07481    7.25381    4.91658    0.05081
      10      444        2     0.06436    3.21479   -0.94843    9.35112
      11      444        2     0.12881    2.16057   -3.19305    9.97051
      12      444        2     0.12699    6.09136    2.88890    0.80313
      13      444        2     0.12231    2.33890    3.83171    8.65620
      14      444        2     0.11762    1.11828    2.65169    9.20209
      15      444        2     0.07543    1.42477    3.73589    6.33606
      16      444        2     0.06424    0.29213    2.46090    6.81224
      17      444        2     0.12901   -0.75675    4.11481    8.45610
      18      444        2     0.12736    0.26652    5.39627    7.72536
      19      444        2     0.12258   -0.57750   -0.52251    3.01271
      20      444        2     0.11833    6.95180    0.53639    3.76663
      21      444        2     0.07320    4.34687    9.76609    4.24975
      22      444        2     0.06419    6.12394   -1.44336    5.11609
      23      444        2     0.12902    5.08061   -0.84092    2.86089
      24      444        2     0.12664    3.19277   10.14304    2.11586
      25      444        2     0.12247   -2.31733    9.40480    1.02460
      26      444        2     0.11825   -1.09479    9.28173    2.31719
      27      444        2     0.07481   -4.31895    1.24929   10.58837
      28      444        2     0.06437   -0.27996    7.11431    1.28808
      29      444        2     0.12890    0.77428    9.35889    0.66869
      30      444        2     0.12696   -3.15650    3.27697    9.83605
      31      444        2     0.12231    0.59594    2.33416    1.98297
      32      444        2     0.11775    1.81655    3.51420    1.43709
      33      444        2     0.07554    1.51009    2.42997    4.30311
      34      444        2     0.06419    2.64271    3.70497    3.82693
      35      444        2     0.12892    3.69158    2.05108    2.18307
      36      444        2     0.12727    2.66833    0.76961    2.91379
      37      444        2     0.12260    3.51232    6.68838    7.62651
      38      444        2     0.11837   -4.01693    5.62945    6.87257
      39      444        2     0.07320   -1.41205   -3.60024    6.38944
      40      444        2     0.06434   -3.18910    7.60922    5.52311
      41      444        2     0.12905   -2.14578    7.00681    7.77832
      42      444        2     0.12661   -0.25795   -3.97715    8.52331
      43      444        3     0.81697    5.56485   -1.60510    8.25177
      44      444        4    -0.38171    4.64402   -2.53565    9.02919
      45      444        4    -0.00717    3.73467   -1.70784    9.95228
      46      444        4    -0.38073    5.59810    3.52636    0.05670
      47      444        3     0.80035    4.58284    4.41147    0.74329
      48      444        3     0.81327    2.64567    1.83471    7.92106
      49      444        4    -0.37828    1.72785    2.97416    8.34273
      50      444        4    -0.00928    0.81212    3.36105    7.16959
      51      444        4    -0.38124   -0.22613    4.43085    7.54634
      52      444        3     0.79791   -1.24688    4.58427    6.44153
      53      444        3     0.81483   -0.27002   -0.17027    5.11148
      54      444        4    -0.38085   -1.18819   -0.36944    3.91310
      55      444        4    -0.00641    6.64636   -1.58029    4.15867
      56      444        4    -0.37998    2.69788   10.46787    3.04122
      57      444        3     0.79656    1.67514    9.43385    3.45509
      58      444        3     0.81704   -2.62999    7.77090    2.38732
      59      444        4    -0.38177   -1.70918    8.70158    1.61002
      60      444        4    -0.00700   -0.79984    7.87372    0.68693
      61      444        4    -0.38105   -2.66327    2.63949   10.58251
      62      444        3     0.80070   -1.64802    1.75435    9.89589
      63      444        3     0.81279    0.28915    4.33117    2.71809
      64      444        4    -0.37832    1.20699    3.19171    2.29647
      65      444        4    -0.00942    2.12271    2.80482    3.46960
      66      444        4    -0.38089    3.16097    1.73503    3.09283
      67      444        3     0.79780    4.18174    1.58158    4.19761
      68      444        3     0.81458    3.20488    6.33625    5.52764
      69      444        4    -0.38061    4.12295    6.53520    6.72612
      70      444        4    -0.00683   -3.71155    7.74613    6.48051
      71      444        4    -0.38000    0.23691   -4.30199    7.59795
      72      444        3     0.79642    1.25971   -3.26799    7.18412
      73      444        5    -0.80583    5.03473   -0.90537    7.30632
      74      444        5    -0.71801   -1.97413   -1.52931    8.60213
      75      444        5    -0.75618    3.66347    4.97516    0.06291
      76      444        5    -0.77709    4.65938    4.61579    2.00389
      77      444        5    -0.80447    2.11423    0.66662    7.78762
      78      444        5    -0.71705    3.85649    2.09846    7.67781
      79      444        5    -0.75537   -2.16329    3.71055    6.29172
      80      444        5    -0.77577   -1.17910    5.58027    5.64131
      81      444        5    -0.80641   -0.79980    0.29829    6.19052
      82      444        5    -0.71638    0.93936   -0.51794    5.00405
      83      444        5    -0.75454    0.76595    9.73616    4.29643
      84      444        5    -0.77528    1.73354    8.24811    2.97774
      85      444        5    -0.80591   -2.09990    7.07127    3.33286
      86      444        5    -0.71807    4.90896    7.69516    2.03703
      87      444        5    -0.75627   -0.72865    1.19066   10.57627
      88      444        5    -0.77728   -1.72454    1.55007    8.63529
      89      444        5    -0.80424    0.82061    5.49926    2.85159
      90      444        5    -0.71686   -0.92166    4.06741    2.96135
      91      444        5    -0.75545    5.09811    2.45533    4.34745
      92      444        5    -0.77573    4.11393    0.58561    4.99785
      93      444        5    -0.80632    3.73463    5.86758    4.44863
      94      444        5    -0.71625    1.99545    6.68383    5.63513
      95      444        5    -0.75438    2.16887   -3.57031    6.34278
      96      444        5    -0.77528    1.20131   -2.08224    7.66144
      97      444        1     1.57502   -5.84024   -4.66560   17.27295
      98      444        1     1.57396   -0.00598   -7.17386   16.74769
      99      444        1     1.57373   -2.92264   -6.37314   19.18500
     100      444        1     1.57502    2.97022   -1.34836   14.64518
     101      444        1     1.57375   -2.86409    1.15991   15.17043
     102      444        1     1.57385    0.05257    0.35917   12.73314
     103      444        2     0.12238    2.34971   -9.32882   20.25403
     104      444        2     0.11826    1.12721   -9.20573   18.96147
     105      444        2     0.07481    4.35136   -1.17333   10.69029
     106      444        2     0.06436    0.31234   -7.03834   19.99059
     107      444        2     0.12881   -0.74187   -9.28296   20.60998
     108      444        2     0.12699    3.18891   -3.20101   11.44260
     109      444        2     0.12231   -0.56354   -2.25820   19.29567
     110      444        2     0.11762   -1.78416   -3.43822   19.84156
     111      444        2     0.07543   -1.47768   -2.35402   16.97553
     112      444        2     0.06424   -2.61032   -3.62901   17.45171
     113      444        2     0.12901   -3.65919   -1.97510   19.09558
     114      444        2     0.12736   -2.63592   -0.69364   18.36484
     115      444        2     0.12258   -3.47995   -6.61242   13.65218
     116      444        2     0.11833    4.04935   -5.55352   14.40610
     117      444        2     0.07320    1.44442    3.67618   14.88922
     118      444        2     0.06419    3.22149   -7.53327   15.75556
     119      444        2     0.12902    2.17816   -6.93083   13.50036
     120      444        2     0.12664    0.29032    4.05313   12.75533
     121      444        2     0.12247   -5.21977    3.31489   11.66408
     122      444        2     0.11825   -3.99724    3.19182   12.95667
     123      444        2     0.07481   -7.22140   -4.84062   21.22784
     124      444        2     0.06437   -3.18240    1.02440   11.92755
     125      444        2     0.12890   -2.12816    3.26898   11.30816
     126      444        2     0.12696   -6.05895   -2.81294   20.47553
     127      444        2     0.12231   -2.30651   -3.75575   12.62245
     128      444        2     0.11775   -1.08590   -2.57571   12.07657
     129      444        2     0.07554   -1.39235   -3.65995   14.94259
     130      444        2     0.06419   -0.25974   -2.38494   14.46641
     131      444        2     0.12892    0.78914   -4.03883   12.82254
     132      444        2     0.12727   -0.23412   -5.32030   13.55326
     133      444        2     0.12260    0.60988    0.59846   18.26599
     134      444        2     0.11837   -6.91937   -0.46046   17.51204
     135      444        2     0.07320   -4.31449   -9.69015   17.02891
     136      444        2     0.06434   -6.09155    1.51931   16.16258
     137      444        2     0.12905   -5.04823    0.91690   18.41779
     138      444        2     0.12661   -3.16040  -10.06706   19.16279
     139      444        3     0.81697    2.66240   -7.69502   18.89125
     140      444        4    -0.38171    1.74157   -8.62557   19.66866
     141      444        4    -0.00717    0.83222   -7.79775   20.59175
     142      444        4    -0.38073    2.69565   -2.56355   10.69617
     143      444        3     0.80035    1.68039   -1.67844   11.38277
     144      444        3     0.81327   -0.25677   -4.25521   18.56053
     145      444        4    -0.37828   -1.17460   -3.11575   18.98220
     146      444        4    -0.00928   -2.09032   -2.72886   17.80906
     147      444        4    -0.38124   -3.12858   -1.65906   18.18582
     148      444        3     0.79791   -4.14932   -1.50564   17.08100
     149      444        3     0.81483   -3.17247   -6.26018   15.75095
     150      444        4    -0.38085   -4.09064   -6.45935   14.55258
     151      444        4    -0.00641    3.74391   -7.67021   14.79815
     152      444        4    -0.37998   -0.20457    4.37796   13.68069
     153      444        3     0.79656   -1.22731    3.34394   14.09457
     154      444        3     0.81704   -5.53244    1.68099   13.02679
     155      444        4    -0.38177   -4.61163    2.61167   12.24949
     156      444        4    -0.00700   -3.70229    1.78381   11.32640
     157      444        4    -0.38105   -5.56571   -3.45042   21.22198
     158      444        3     0.80070   -4.55047   -4.33556   20.53536
     159      444        3     0.81279   -2.61330   -1.75874   13.35756
     160      444        4    -0.37832   -1.69546   -2.89820   12.93594
     161      444        4    -0.00942   -0.77973   -3.28509   14.10907
     162      444        4    -0.38089    0.25852   -4.35488   13.73230
     163      444        3     0.79780    1.27929   -4.50833   14.83709
     164      444        3     0.81458    0.30243    0.24634   16.16712
     165      444        4    -0.38061    1.22051    0.44529   17.36559
     166      444        4    -0.00683   -6.61399    1.65622   17.11999
     167      444        4    -0.38000   -2.66553  -10.39190   18.23742
     168      444        3     0.79642   -1.64274   -9.35791   17.82360
     169      444        5    -0.80583    2.13229   -6.99529   17.94579
     170      444        5    -0.71801   -4.87657   -7.61922   19.24160
     171      444        5    -0.75618    0.76102   -1.11475   10.70238
     172      444        5    -0.77709    1.75694   -1.47412   12.64336
     173      444        5    -0.80447   -0.78821   -5.42329   18.42709
     174      444        5    -0.71705    0.95405   -3.99146   18.31728
     175      444        5    -0.75537   -5.06573   -2.37936   16.93119
     176      444        5    -0.77577   -4.08155   -0.50965   16.28079
     177      444        5    -0.80641   -3.70225   -5.79162   16.83000
     178      444        5    -0.71638   -1.96308   -6.60785   15.64353
     179      444        5    -0.75454   -2.13650    3.64625   14.93590
     180      444        5    -0.77528   -1.16890    2.15820   13.61722
     181      444        5    -0.80591   -5.00234    0.98136   13.97233
     182      444        5    -0.71807    2.00652    1.60524   12.67651
     183      444        5    -0.75627   -3.63110   -4.89925   21.21575
     184      444        5    -0.77728   -4.62699   -4.53984   19.27477
     185      444        5    -0.80424   -2.08184   -0.59065   13.49106
     186      444        5    -0.71686   -3.82411   -2.02250   13.60082
     187      444        5    -0.75545    2.19567   -3.63458   14.98692
     188      444        5    -0.77573    1.21149   -5.50430   15.63732
     189      444        5    -0.80632    0.83219   -0.22233   15.08810
     190      444        5    -0.71625   -0.90699    0.59392   16.27461
     191      444        5    -0.75438   -0.73358   -9.66022   16.98225
     192      444        5    -0.77528   -1.70113   -8.17215   18.30091
     193      444        1     1.57502   -8.74268  -10.75551   27.91242
     194      444        1     1.57396   -2.90843  -13.26377   27.38716
     195      444        1     1.57373   -5.82509  -12.46305   29.82447
     196      444        1     1.57502    0.06777   -7.43827   25.28465
     197      444        1     1.57375   -5.76653   -4.93000   25.80990
     198      444        1     1.57385   -2.84988   -5.73074   23.37261
     199      444        2     0.12238   -0.55274  -15.41873   30.89351
     200      444        2     0.11826   -1.77524  -15.29564   29.60094
     201      444        2     0.07481    1.44891   -7.26324   21.32976
     202      444        2     0.06436   -2.59011  -13.12825   30.63006
     203      444        2     0.12881   -3.64432  -15.37287   31.24945
     204      444        2     0.12699    0.28646   -9.29092   22.08208
     205      444        2     0.12231   -3.46599   -8.34811   29.93515
     206      444        2     0.11762   -4.68661   -9.52813   30.48104
     207      444        2     0.07543   -4.38012   -8.44393   27.61501
     208      444        2     0.06424   -5.51276   -9.71893   28.09119
     209      444        2     0.12901   -6.56164   -8.06502   29.73505
     210      444        2     0.12736   -5.53837   -6.78355   29.00431
     211      444        2     0.12258   -6.38239  -12.70233   24.29165
     212      444        2     0.11833    1.14691  -11.64343   25.04557
     213      444        2     0.07320   -1.45802   -2.41373   25.52869
     214      444        2     0.06419    0.31905  -13.62318   26.39503
     215      444        2     0.12902   -0.72429  -13.02074   24.13984
     216      444        2     0.12664   -2.61212   -2.03678   23.39481
     217      444        2     0.12247   -8.12222   -2.77503   22.30355
     218      444        2     0.11825   -6.89968   -2.89809   23.59614
     219      444        2     0.07481  -10.12384  -10.93053   31.86732
     220      444        2     0.06437   -6.08485   -5.06551   22.56702
     221      444        2     0.12890   -5.03061   -2.82093   21.94764
     222      444        2     0.12696   -8.96139   -8.90285   31.11500
     223      444        2     0.12231   -5.20895   -9.84567   23.26192
     224      444        2     0.11775   -3.98834   -8.66563   22.71604
     225      444        2     0.07554   -4.29480   -9.74986   25.58206
     226      444        2     0.06419   -3.16218   -8.47485   25.10588
     227      444        2     0.12892   -2.11331  -10.12874   23.46202
     228      444        2     0.12727   -3.13657  -11.41022   24.19274
     229      444        2     0.12260   -2.29257   -5.49145   28.90546
     230      444        2     0.11837   -9.82182   -6.55037   28.15151
     231      444        2     0.07320   -7.21694  -15.78006   27.66839
     232      444        2     0.06434   -8.99400   -4.57060   26.80206
     233      444        2     0.12905   -7.95068   -5.17301   29.05726
     234      444        2     0.12661   -6.06284  -16.15697   29.80226
     235      444        3     0.81697   -0.24004  -13.78493   29.53072
     236      444        4    -0.38171   -1.16087  -14.71548   30.30813
     237      444        4    -0.00717   -2.07023  -13.88767   31.23123
     238      444        4    -0.38073   -0.20679   -8.65346   21.33564
     239      444        3     0.80035   -1.22206   -7.76835   22.02224
     240      444        3     0.81327   -3.15922  -10.34512   29.20000
     241      444        4    -0.37828   -4.07705   -9.20567   29.62168
     242      444        4    -0.00928   -4.99277   -8.81877   28.44854
     243      444        4    -0.38124   -6.03102   -7.74897   28.82529
     244      444        3     0.79791   -7.05177   -7.59555   27.72048
     245      444        3     0.81483   -6.07491  -12.35009   26.39043
     246      444        4    -0.38085   -6.99308  -12.54926   25.19205
     247      444        4    -0.00641    0.84147  -13.76012   25.43762
     248      444        4    -0.37998   -3.10701   -1.71195   24.32016
     249      444        3     0.79656   -4.12976   -2.74597   24.73404
     250      444        3     0.81704   -8.43488   -4.40892   23.66626
     251      444        4    -0.38177   -7.51408   -3.47824   22.88896
     252      444        4    -0.00700   -6.60473   -4.30611   21.96587
     253      444        4    -0.38105   -8.46816   -9.54033   31.86146
     254      444        3     0.80070   -7.45291  -10.42547   31.17484
     255      444        3     0.81279   -5.51574   -7.84865   23.99703
     256      444        4    -0.37832   -4.59791   -8.98811   23.57541
     257      444        4    -0.00942   -3.68218   -9.37500   24.74854
     258      444        4    -0.38089   -2.64392  -10.44479   24.37178
     259      444        3     0.79780   -1.62315  -10.59825   25.47656
     260      444        3     0.81458   -2.60002   -5.84357   26.80659
     261      444        4    -0.38061   -1.68194   -5.64462   28.00506
     262      444        4    -0.00683   -9.51644   -4.43369   27.75946
     263      444        4    -0.38000   -5.56798  -16.48181   28.87689
     264      444        3     0.79642   -4.54518  -15.44782   28.46307
     265      444        5    -0.80583   -0.77016  -13.08520   28.58526
     266      444        5    -0.71801   -7.77902  -13.70913   29.88108
     267      444        5    -0.75618   -2.14143   -7.20466   21.34186
     268      444        5    -0.77709   -1.14551   -7.56403   23.28284
     269      444        5    -0.80447   -3.69066  -11.51321   29.06656
     270      444        5    -0.71705   -1.94840  -10.08137   28.95675
     271      444        5    -0.75537   -7.96818   -8.46928   27.57066
     272      444        5    -0.77577   -6.98400   -6.59956   26.92026
     273      444        5    -0.80641   -6.60469  -11.88154   27.46947
     274      444        5    -0.71638   -4.86553  -12.69777   26.28300
     275      444        5    -0.75454   -5.03894   -2.44367   25.57538
     276      444        5    -0.77528   -4.07135   -3.93171   24.25669
     277      444        5    -0.80591   -7.90479   -5.10856   24.61180
     278      444        5    -0.71807   -0.89593   -4.48467   23.31598
     279      444        5    -0.75627   -6.53354  -10.98916   31.85522
     280      444        5    -0.77728   -7.52944  -10.62975   29.91424
     281      444        5    -0.80424   -4.98428   -6.68057   24.13054
     282      444        5    -0.71686   -6.72655   -8.11241   24.24029
     283      444        5    -0.75545   -0.70678   -9.72450   25.62639
     284      444        5    -0.77573   -1.69096  -11.59422   26.27680
     285      444        5    -0.80632   -2.07026   -6.31224   25.72758
     286      444        5    -0.71625   -3.80944   -5.49599   26.91408
     287      444        5    -0.75438   -3.63602  -15.75013   27.62172
     288      444        5    -0.77528   -4.60358  -14.26206   28.94039
     289      444        1     1.57502   -5.85070   13.67989    6.63348
     290      444        1     1.57396   -0.01645   11.17164    6.10822
     291      444        1     1.57373   -2.93311   11.97236    8.54553
     292      444        1     1.57502    2.95975   16.99714    4.00571
     293      444        1     1.57375   -2.87455   19.50541    4.53096
     294      444        1     1.57385    0.04210   18.70467    2.09367
     295      444        2     0.12238    2.33924    9.01667    9.61456
     296      444        2     0.11826    1.11674    9.13976    8.32199
     297      444        2     0.07481    4.34089   17.17217    0.05081
     298      444        2     0.06436    0.30187   11.30716    9.35112
     299      444        2     0.12881   -0.75234    9.06253    9.97051
     300      444        2     0.12699    3.17844   15.14449    0.80313
     301      444        2     0.12231   -0.57401   16.08730    8.65620
     302      444        2     0.11762   -1.79463   14.90727    9.20209
     303      444        2     0.07543   -1.48814   15.99148    6.33606
     304      444        2     0.06424   -2.62078   14.71648    6.81224
     305      444        2     0.12901   -3.66966   16.37039    8.45610
     306      444        2     0.12736   -2.64639   17.65186    7.72536
     307      444        2     0.12258   -3.49041   11.73308    3.01271
     308      444        2     0.11833    4.03889   12.79198    3.76663
     309      444        2     0.07320    1.43396   22.02168    4.24975
     310      444        2     0.06419    3.21103   10.81223    5.11609
     311      444        2     0.12902    2.16769   11.41467    2.86089
     312      444        2     0.12664    0.27986   22.39863    2.11586
     313      444        2     0.12247   -5.23024   21.66038    1.02460
     314      444        2     0.11825   -4.00770   21.53732    2.31719
     315      444        2     0.07481   -7.23186   13.50488   10.58837
     316      444        2     0.06437   -3.19287   19.36989    1.28808
     317      444        2     0.12890   -2.13863   21.61448    0.66869
     318      444        2     0.12696   -6.06941   15.53256    9.83605
     319      444        2     0.12231   -2.31697   14.58974    1.98297
     320      444        2     0.11775   -1.09636   15.76978    1.43709
     321      444        2     0.07554   -1.40282   14.68555    4.30311
     322      444        2     0.06419   -0.27020   15.96056    3.82693
     323      444        2     0.12892    0.77867   14.30667    2.18307
     324      444        2     0.12727   -0.24459   13.02519    2.91379
     325      444        2     0.12260    0.59941   18.94396    7.62651
     326      444        2     0.11837   -6.92984   17.88504    6.87257
     327      444        2     0.07320   -4.32496    8.65534    6.38944
     328      444        2     0.06434   -6.10202   19.86481    5.52311
     329      444        2     0.12905   -5.05870   19.26240    7.77832
     330      444        2     0.12661   -3.17086    8.27843    8.52331
     331      444        3     0.81697    2.65194   10.65048    8.25177
     332      444        4    -0.38171    1.73111    9.71993    9.02919
     333      444        4    -0.00717    0.82175   10.54774    9.95228
     334      444        4    -0.38073    2.68519   15.78194    0.05670
     335      444        3     0.80035    1.66992   16.66706    0.74329
     336      444        3     0.81327   -0.26724   14.09029    7.92106
     337      444        4    -0.37828   -1.18507   15.22974    8.34273
     338      444        4    -0.00928   -2.10079   15.61663    7.16959
     339      444        4    -0.38124   -3.13904   16.68644    7.54634
     340      444        3     0.79791   -4.15979   16.83986    6.44153
     341      444        3     0.81483   -3.18293   12.08532    5.11148
     342      444        4    -0.38085   -4.10110   11.88614    3.91310
     343      444        4    -0.00641    3.73345   10.67529    4.15867
     344      444        4    -0.37998   -0.21503   22.72346    3.04122
     345      444        3     0.79656   -1.23778   21.68943    3.45509
     346      444        3     0.81704   -5.54290   20.02648    2.38732
     347      444        4    -0.38177   -4.62210   20.95716    1.61002
     348      444        4    -0.00700   -3.71275   20.12930    0.68693
     349      444        4    -0.38105   -5.57618   14.89507   10.58251
     350      444        3     0.80070   -4.56093   14.00994    9.89589
     351      444        3     0.81279   -2.62376   16.58675    2.71809
     352      444        4    -0.37832   -1.70593   15.44730    2.29647
     353      444        4    -0.00942   -0.79020   15.06041    3.46960
     354      444        4    -0.38089    0.24806   13.99061    3.09283
     355      444        3     0.79780    1.26883   13.83716    4.19761
     356      444        3     0.81458    0.29196   18.59184    5.52764
     357      444        4    -0.38061    1.21004   18.79078    6.72612
     358      444        4    -0.00683   -6.62446   20.00172    6.48051
     359      444        4    -0.38000   -2.67600    7.95360    7.59795
     360      444        3     0.79642   -1.65320    8.98759    7.18412
     361      444        5    -0.80583    2.12182   11.35021    7.30632
     362      444        5    -0.71801   -4.88704   10.72628    8.60213
     363      444        5    -0.75618    0.75055   17.23075    0.06291
     364      444        5    -0.77709    1.74647   16.87138    2.00389
     365      444        5    -0.80447   -0.79868   12.92220    7.78762
     366      444        5    -0.71705    0.94358   14.35404    7.67781
     367      444        5    -0.75537   -5.07620   15.96613    6.29172
     368      444        5    -0.77577   -4.09202   17.83585    5.64131
     369      444        5    -0.80641   -3.71271   12.55387    6.19052
     370      444        5    -0.71638   -1.97355   11.73764    5.00405
     371      444        5    -0.75454   -2.14696   21.99174    4.29643
     372      444        5    -0.77528   -1.17937   20.50370    2.97774
     373      444        5    -0.80591   -5.01281   19.32685    3.33286
     374      444        5    -0.71807    1.99605   19.95074    2.03703
     375      444        5    -0.75627   -3.64156   13.44625   10.57627