Created on Tue Feb 06 15:49:17 2018 

        1712 atoms
        1936 bonds
        3360 angles
        3744 dihedrals
        2016 impropers

           7 atom types
           8 bond types
          12 angle types
           5 dihedral types
           1 improper types
           0.000000  34.576000 xlo xhi
           0.000000  34.489018 ylo yhi
           0.000000  34.516537 zlo zhi
           2.085272   2.215596   2.389290 xy xz yz

Masses

    1    65.380000000 # Zn3f2
    2     1.007940000 # H_
    3    12.010700000 # C_R
    4    12.010700000 # C_3
    5    15.999400000 # O_2
    6    15.999400000 # O_3
    7    15.999400000 # O_3_f

Bond Coeffs

    1      122.127512        2.014866  # Zn3f2 O_2
    2      357.440381        1.081418  # H_ C_R
    3      331.069389        1.109401  # H_ C_3
    4      714.557442        1.269010  # C_R O_2
    5      391.669513        1.458000  # C_R C_R
    6      462.655054        1.379256  # C_R C_R
    7      572.510195        1.366311  # C_R O_3
    8      539.248552        1.393845  # C_3 O_3

Angle Coeffs

    1                      fourier       32.394397        0.343737        0.374972        0.281246 # O_2 Zn3f2 O_2
    2              cosine/periodic      148.862838              -1               3 # O_2 C_R C_R
    3              cosine/periodic      256.805977              -1               3 # O_2 C_R O_2
    4              cosine/periodic      117.010657              -1               3 # C_R C_R C_R
    5              cosine/periodic      101.626578              -1               3 # C_R C_R C_R
    6              cosine/periodic       76.817955              -1               3 # H_ C_R C_R
    7              cosine/periodic      144.104200              -1               3 # O_3 C_R C_R
    8                      fourier      107.207104        0.343737        0.374972        0.281246 # O_3 C_3 H_
    9                      fourier       61.342703        0.343737        0.374972        0.281246 # H_ C_3 H_
   10              cosine/periodic       33.013732              -1               3 # C_R O_2 Zn3f2
   11                      fourier      168.527890        0.300235        0.267331        0.266745 # C_3 O_3 C_R
   12                      fourier       10.476826        0.343737        0.374972        0.281246 # Zn3f2 O_3_f Zn3f2

Dihedral Coeffs

    1        2.245703              -1               2 # C_R C_R O_2 Zn3f2
    2        0.555556              -1               2 # O_2 C_R C_R C_R
    3        1.497136              -1               2 # C_R C_R C_R C_R
    4        0.833333               1               2 # C_R C_R O_3 C_3
    5        0.128665               1               2 # H_ C_3 O_3 C_R

Improper Coeffs

    1        2.000000        1.000000       -1.000000        0.000000               0 # O_2 C_R C_R O_2

Pair Coeffs

    1        0.124000        2.461553 # Zn3f2 Zn3f2
    2        0.044000        2.571134 # H_ H_
    3        0.105000        3.430851 # C_R C_R
    4        0.105000        3.430851 # C_3 C_3
    5        0.060000        3.118146 # O_2 O_2
    6        0.060000        3.118146 # O_3 O_3
    7        0.060000        3.118146 # O_3_f O_3_f

Atoms

       1      444        1     1.11547   16.97331   16.18965   12.89607
       2      444        1     1.11547   14.85903   16.24301   15.30118
       3      444        1     1.11547   17.08191   13.98464   15.23612
       4      444        1     1.11547   14.70514   13.96165   13.05830
       5      444        1     1.11547    2.46473    2.24989    4.36203
       6      444        1     1.11547    4.57937    2.19656    1.95692
       7      444        1     1.11547    2.35660    4.45500    2.02215
       8      444        1     1.11547    4.73299    4.47813    4.19980
       9      444        2     0.09385   17.34941   16.32104    8.72233
      10      444        2     0.09385   14.06934   13.33516    6.49860
      11      444        2     0.09385   14.18460   13.44004    8.99518
      12      444        2     0.09385    0.37947    0.56542    5.75425
      13      444        2     0.09385   16.66813    0.77730    7.19963
      14      444        2     0.09385    1.73807   16.79481    7.21016
      15      444        2     0.09385   13.44389   15.33611    2.10534
      16      444        2     0.09385   17.43164   13.60302    4.49233
      17      444        2     0.09385   17.20589   13.26681    2.04131
      18      444        2     0.09385   11.69452   16.70259    4.92551
      19      444        2     0.09385   12.49488   16.93716    3.33999
      20      444        2     0.09385   11.74416   15.35454    3.74073
      21      444        2     0.09385   10.74240   16.86765   15.72504
      22      444        2     0.09385    8.08516   13.79712   12.87329
      23      444        2     0.09385   10.58426   13.73767   12.79787
      24      444        2     0.09385    5.83368    0.01094    0.15809
      25      444        2     0.09385    8.25862   16.13945    0.27354
      26      444        2     0.09385    8.34232    1.40423   16.30458
      27      444        2     0.09385    3.81850   13.44539   15.20626
      28      444        2     0.09385    6.33284   17.26221   13.28369
      29      444        2     0.09385    3.85658   17.20168   13.12595
      30      444        2     0.09385    6.60024   11.52215   16.40019
      31      444        2     0.09385    5.09450   12.43502   16.73275
      32      444        2     0.09385    5.32761   11.63911   15.13878
      33      444        2     0.09385   17.27595    9.84677   15.82014
      34      444        2     0.09385   14.19277    7.37831   12.80564
      35      444        2     0.09385   14.24711    9.87828   12.78544
      36      444        2     0.09385    0.50476    5.79938    0.00000
      37      444        2     0.09385    1.74591    8.37707   16.16962
      38      444        2     0.09385   16.76891    7.25705    0.28631
      39      444        2     0.09385   16.12921    2.98021   12.33742
      40      444        2     0.09385   14.70890    5.59130   16.30699
      41      444        2     0.09385   14.37157    3.13209   16.25194
      42      444        2     0.09385   17.37291    5.68629   10.33805
      43      444        2     0.09385   17.67837    4.16256   11.23082
      44      444        2     0.09385   16.04927    4.49151   10.54808
      45      444        2     0.09385    2.08864    2.11853    8.53490
      46      444        2     0.09385    5.36936    5.10376   10.75967
      47      444        2     0.09385    5.25316    4.99814    8.24945
      48      444        2     0.09385   19.02123   17.87432   11.50402
      49      444        2     0.09385    2.76974   17.66225   10.05864
      50      444        2     0.09385   17.69996    1.64493   10.04811
      51      444        2     0.09385    5.99482    3.10361   15.15293
      52      444        2     0.09385    2.00663    4.83579   12.76611
      53      444        2     0.09385    2.23245    5.17223   15.21696
      54      444        2     0.09385    7.74425    1.73716   12.33241
      55      444        2     0.09385    6.94395    1.50253   13.91707
      56      444        2     0.09385    7.69442    3.08529   13.51668
      57      444        2     0.09385    8.69630    1.57158    1.53357
      58      444        2     0.09385   11.35286    4.64653    4.38118
      59      444        2     0.09385    8.85379    4.70568    4.45643
      60      444        2     0.09385   13.60366   18.40681   17.10122
      61      444        2     0.09385   11.17989    2.29838   16.98542
      62      444        2     0.09385   11.09639   17.03495    0.95576
      63      444        2     0.09385   15.62068    4.99616    2.05287
      64      444        2     0.09385   13.10475    1.17858    3.97199
      65      444        2     0.09385   15.58100    1.23839    4.13059
      66      444        2     0.09385   12.83989    6.92045    0.85860
      67      444        2     0.09385   14.34513    6.00690    0.52569
      68      444        2     0.09385   14.11261    6.80264    2.11966
      69      444        2     0.09385    2.16242    8.59297    1.43813
      70      444        2     0.09385    5.24477   11.06058    4.44262
      71      444        2     0.09385    5.19100    8.56130    4.47300
      72      444        2     0.09385   18.93063   12.63695   17.21081
      73      444        2     0.09385   17.69266   10.06245    1.08848
      74      444        2     0.09385    2.66979   11.18275   16.97195
      75      444        2     0.09385    3.30870   15.45942    4.92085
      76      444        2     0.09385    4.72970   12.84833    0.95162
      77      444        2     0.09385    5.06680   15.30755    1.00667
      78      444        2     0.09385    2.06527   12.75308    6.92022
      79      444        2     0.09385    1.75972   14.27689    6.02780
      80      444        2     0.09385    3.38889   13.94797    6.71036
      81      444        3     0.72919   15.84050   14.96482   10.48319
      82      444        3    -0.06135   15.78114   14.88456    8.99501
      83      444        3    -0.13457   16.64568   15.66783    8.21511
      84      444        3     0.22841   16.58166   15.60513    6.82099
      85      444        3    -0.06135   15.65018   14.74875    6.18968
      86      444        3    -0.13457   14.79285   13.98590    6.99029
      87      444        3    -0.13457   14.85107   14.03985    8.37923
      88      444        4    -0.01092   18.26512   17.29348    6.58748
      89      444        3     0.72919   15.10531   14.06139    0.47892
      90      444        3    -0.06135   15.29338   14.26942    1.94069
      91      444        3    -0.13457   14.30110   14.95765    2.65363
      92      444        3     0.22841   14.42715   15.14127    4.02929
      93      444        3    -0.06135   15.56207   14.64166    4.71133
      94      444        3    -0.13457   16.55567   13.98889    3.97234
      95      444        3    -0.13457   16.43126   13.78922    2.59892
      96      444        4    -0.01092   12.29339   16.21825    4.14802
      97      444        3     0.72919   12.29204   15.25864   14.23082
      98      444        3    -0.06135   10.80096   15.30590   14.25688
      99      444        3    -0.13457   10.14079   16.21119   15.10254
     100      444        3     0.22841    8.74447   16.24704   15.13809
     101      444        3    -0.06135    7.98895   15.37361   14.32126
     102      444        3    -0.13457    8.67145   14.47510   13.49251
     103      444        3    -0.13457   10.06161   14.43561   13.44816
     104      444        4    -0.01092    8.74617   17.93168   16.84562
     105      444        3     0.72919    2.21592   15.20568   14.04599
     106      444        3    -0.06135    3.69912   15.30098   14.14522
     107      444        3    -0.13457    4.39382   14.26481   14.78671
     108      444        3     0.22841    5.78415   14.29901   14.87145
     109      444        3    -0.06135    6.50307   15.38579   14.31936
     110      444        3    -0.13457    5.78569   16.42388   13.71169
     111      444        3    -0.13457    4.39589   16.39131   13.61229
     112      444        4    -0.01092    5.83224   12.16760   15.94664
     113      444        3     0.72919   15.80822   11.49018   14.28294
     114      444        3    -0.06135   15.76305    9.99980   14.30969
     115      444        3    -0.13457   16.60324    9.28569   15.17692
     116      444        3     0.22841   16.56906    7.88909   15.19539
     117      444        3    -0.06135   15.68428    7.18737   14.34352
     118      444        3    -0.13457   14.86645    7.92361   13.47836
     119      444        3    -0.13457   14.89159    9.31413   13.45593
     120      444        4    -0.01092   18.34670    7.78964   16.79903
     121      444        3     0.72919   14.99970    1.44843   14.18785
     122      444        3    -0.06135   15.21590    2.92032   14.27311
     123      444        3    -0.13457   15.81865    3.57688   13.18980
     124      444        3     0.22841   16.00327    4.95849   13.22018
     125      444        3    -0.06135   15.59183    5.70520   14.35042
     126      444        3    -0.13457   15.02745    5.02228   15.43459
     127      444        3    -0.13457   14.82668    3.64379   15.40628
     128      444        4    -0.01092   16.93643    4.94652   11.01664
     129      444        3     0.72919    3.59793    3.47450    6.77491
     130      444        3    -0.06135    3.65726    3.55474    8.26274
     131      444        3    -0.13457    2.79257    2.77165    9.04299
     132      444        3     0.22841    2.85661    2.83432   10.43728
     133      444        3    -0.06135    3.78829    3.69046   11.06859
     134      444        3    -0.13457    4.64570    4.45320   10.26798
     135      444        3    -0.13457    4.58740    4.39923    8.87765
     136      444        4    -0.01092    1.17286    1.14615   10.67079
     137      444        3     0.72919    4.33332    4.37858   16.77935
     138      444        3    -0.06135    4.14516    4.17004   15.31775
     139      444        3    -0.13457    5.13751    3.48189   14.60464
     140      444        3     0.22841    5.01141    3.29813   13.22846
     141      444        3    -0.06135    3.87638    3.79750   12.54693
     142      444        3    -0.13457    2.88272    4.45012   13.28611
     143      444        3    -0.13457    3.00714    4.64990   14.65935
     144      444        4    -0.01092    7.14537    2.22151   13.11024
     145      444        3     0.72919    7.14633    3.18290    3.02451
     146      444        3    -0.06135    8.63742    3.13545    2.99949
     147      444        3    -0.13457    9.29782    2.22901    2.15521
     148      444        3     0.22841   10.69414    2.19344    2.11966
     149      444        3    -0.06135   11.44948    3.06808    2.93529
     150      444        3    -0.13457   10.76664    3.96753    3.76144
     151      444        3    -0.13457    9.37656    4.00695    3.80700
     152      444        4    -0.01092   10.69247    0.50694    0.41403
     153      444        3     0.72919   17.22245    3.23446    3.21228
     154      444        3    -0.06135   15.73918    3.13968    3.11167
     155      444        3    -0.13457   15.04506    4.17658    2.47190
     156      444        3     0.22841   13.65468    4.14274    2.38561
     157      444        3    -0.06135   12.93531    3.05581    2.93753
     158      444        3    -0.13457   13.65218    2.01699    3.54330
     159      444        3    -0.13457   15.04194    2.04914    3.64322
     160      444        4    -0.01092   13.60665    6.27348    1.29644
     161      444        3     0.72919    3.62981    6.94951    2.97464
     162      444        3    -0.06135    3.67512    8.43991    2.94858
     163      444        3    -0.13457    2.83502    9.15402    2.08083
     164      444        3     0.22841    2.86929   10.55063    2.06288
     165      444        3    -0.06135    3.75401   11.25230    2.91492
     166      444        3    -0.13457    4.57175   10.51599    3.77956
     167      444        3    -0.13457    4.54659    9.12550    3.80251
     168      444        4    -0.01092    1.09182   10.65001    0.45907
     169      444        3     0.72919    4.43833   16.99120    3.07042
     170      444        3    -0.06135    4.22212   15.51923    2.98395
     171      444        3    -0.13457    3.61941   14.86277    4.06864
     172      444        3     0.22841    3.43488   13.48113    4.03809
     173      444        3    -0.06135    3.84644   12.73445    2.90802
     174      444        3    -0.13457    4.41097   13.41733    1.82385
     175      444        3    -0.13457    4.61162   14.79584    1.85216
     176      444        4    -0.01092    2.50171   13.49295    6.24180
     177      444        5    -0.62334   15.01915   14.23340   11.13176
     178      444        5    -0.62334   16.70698   15.76054   10.99403
     179      444        6    -0.27028   17.37682   16.34423    5.98517
     180      444        5    -0.62334   15.20108   15.82060   17.19579
     181      444        5    -0.62334   17.06858   14.51994   17.13263
     182      444        6    -0.27028   13.50195   15.80069    4.79452
     183      444        5    -0.62334   12.82624   14.41930   13.42918
     184      444        5    -0.62334   12.91833   16.05672   15.01124
     185      444        6    -0.27028    8.02245   17.09062   15.94043
     186      444        5    -0.62334   18.94887   14.22999   14.66107
     187      444        5    -0.62334   18.89653   16.09061   13.34806
     188      444        6    -0.27028    6.53001   13.32340   15.47963
     189      444        5    -0.62334   15.01997   12.06975   13.46214
     190      444        5    -0.62334   16.62782   12.07032   15.07889
     191      444        6    -0.27028   17.36455    7.11847   16.00187
     192      444        5    -0.62334   16.52370   18.09456   13.16495
     193      444        5    -0.62334   15.38078   18.13877   15.13343
     194      444        6    -0.27028   16.57981    5.67012   12.20056
     195      444        7    -1.26018   15.90818   15.08963   14.11830
     196      444        5    -0.62334    4.41966    4.20549    6.12617
     197      444        5    -0.62334    2.73116    2.67911    6.26423
     198      444        6    -0.27028    2.06130    2.09527   11.27241
     199      444        5    -0.62334    4.23810    2.62037    0.06247
     200      444        5    -0.62334    2.36949    3.91936    0.12426
     201      444        6    -0.27028    5.93667    2.63877   12.46375
     202      444        5    -0.62334    6.61188    4.02649    3.82150
     203      444        5    -0.62334    6.52017    2.38096    2.24651
     204      444        6    -0.27028   11.41624    1.34903    1.31819
     205      444        5    -0.62334    0.48994    4.21004    2.59737
     206      444        5    -0.62334    0.54147    2.34919    3.91021
     207      444        6    -0.27028   12.90939    5.11895    1.77881
     208      444        5    -0.62334    4.41776    6.37006    3.79647
     209      444        5    -0.62334    2.81048    6.36936    2.17920
     210      444        6    -0.27028    2.07380   11.32128    1.25640
     211      444        5    -0.62334    2.91438    0.34505    4.09332
     212      444        5    -0.62334    4.05709    0.30091    2.12467
     213      444        6    -0.27028    2.85830   12.76947    5.05788
     214      444        7    -1.26018    3.53011    3.34972    3.13997
     215      444        1     1.11547   18.08110   17.38430   30.15434
     216      444        1     1.11547   15.96682   17.43766   32.55945
     217      444        1     1.11547   18.18971   15.17928   32.49439
     218      444        1     1.11547   15.81294   15.15629   30.31656
     219      444        1     1.11547    3.57252    3.44453   21.62030
     220      444        1     1.11547    5.68717    3.39120   19.21518
     221      444        1     1.11547    3.46440    5.64965   19.28042
     222      444        1     1.11547    5.84079    5.67278   21.45807
     223      444        2     0.09385   18.45721   17.51568   25.98060
     224      444        2     0.09385   15.17714   14.52981   23.75687
     225      444        2     0.09385   15.29240   14.63468   26.25345
     226      444        2     0.09385    1.48726    1.76006   23.01252
     227      444        2     0.09385   17.77593    1.97194   24.45790
     228      444        2     0.09385    2.84587   17.98946   24.46843
     229      444        2     0.09385   14.55169   16.53076   19.36360
     230      444        2     0.09385   18.53944   14.79766   21.75060
     231      444        2     0.09385   18.31369   14.46145   19.29958
     232      444        2     0.09385   12.80232   17.89724   22.18378
     233      444        2     0.09385   13.60267   18.13181   20.59826
     234      444        2     0.09385   12.85196   16.54919   20.99900
     235      444        2     0.09385   11.85020   18.06230   32.98331
     236      444        2     0.09385    9.19295   14.99177   30.13156
     237      444        2     0.09385   11.69206   14.93231   30.05614
     238      444        2     0.09385    6.94148    1.20559   17.41635
     239      444        2     0.09385    9.36642   17.33409   17.53181
     240      444        2     0.09385    9.45012    2.59888   33.56285
     241      444        2     0.09385    4.92630   14.64003   32.46453
     242      444        2     0.09385    7.44064   18.45685   30.54196
     243      444        2     0.09385    4.96438   18.39632   30.38422
     244      444        2     0.09385    7.70804   12.71679   33.65846
     245      444        2     0.09385    6.20230   13.62967   33.99102
     246      444        2     0.09385    6.43541   12.83376   32.39705
     247      444        2     0.09385   18.38375   11.04141   33.07841
     248      444        2     0.09385   15.30057    8.57296   30.06390
     249      444        2     0.09385   15.35491   11.07293   30.04371
     250      444        2     0.09385    1.61256    6.99402   17.25827
     251      444        2     0.09385    2.85371    9.57171   33.42789
     252      444        2     0.09385   17.87671    8.45169   17.54458
     253      444        2     0.09385   17.23700    4.17486   29.59569
     254      444        2     0.09385   15.81670    6.78594   33.56526
     255      444        2     0.09385   15.47937    4.32674   33.51021
     256      444        2     0.09385   18.48071    6.88094   27.59632
     257      444        2     0.09385   18.78617    5.35721   28.48909
     258      444        2     0.09385   17.15706    5.68615   27.80635
     259      444        2     0.09385    3.19644    3.31317   25.79317
     260      444        2     0.09385    6.47715    6.29841   28.01794
     261      444        2     0.09385    6.36096    6.19278   25.50772
     262      444        2     0.09385   20.12903   19.06897   28.76229
     263      444        2     0.09385    3.87754   18.85690   27.31691
     264      444        2     0.09385   18.80776    2.83957   27.30638
     265      444        2     0.09385    7.10262    4.29826   32.41120
     266      444        2     0.09385    3.11443    6.03043   30.02438
     267      444        2     0.09385    3.34025    6.36687   32.47523
     268      444        2     0.09385    8.85205    2.93180   29.59068
     269      444        2     0.09385    8.05175    2.69717   31.17534
     270      444        2     0.09385    8.80222    4.27994   30.77494
     271      444        2     0.09385    9.80410    2.76622   18.79184
     272      444        2     0.09385   12.46065    5.84117   21.63945
     273      444        2     0.09385    9.96159    5.90032   21.71470
     274      444        2     0.09385   14.71146   19.60146   34.35949
     275      444        2     0.09385   12.28769    3.49302   34.24368
     276      444        2     0.09385   12.20419   18.22959   18.21403
     277      444        2     0.09385   16.72848    6.19080   19.31114
     278      444        2     0.09385   14.21255    2.37322   21.23026
     279      444        2     0.09385   16.68879    2.43304   21.38886
     280      444        2     0.09385   13.94769    8.11510   18.11687
     281      444        2     0.09385   15.45293    7.20155   17.78396
     282      444        2     0.09385   15.22041    7.99729   19.37793
     283      444        2     0.09385    3.27022    9.78762   18.69640
     284      444        2     0.09385    6.35257   12.25523   21.70089
     285      444        2     0.09385    6.29879    9.75594   21.73127
     286      444        2     0.09385   20.03843   13.83160   34.46908
     287      444        2     0.09385   18.80045   11.25710   18.34675
     288      444        2     0.09385    3.77758   12.37739   34.23022
     289      444        2     0.09385    4.41650   16.65407   22.17912
     290      444        2     0.09385    5.83750   14.04298   18.20989
     291      444        2     0.09385    6.17459   16.50220   18.26494
     292      444        2     0.09385    3.17307   13.94773   24.17849
     293      444        2     0.09385    2.86752   15.47153   23.28606
     294      444        2     0.09385    4.49668   15.14261   23.96863
     295      444        3     0.72919   16.94830   16.15946   27.74146
     296      444        3    -0.06135   16.88894   16.07921   26.25328
     297      444        3    -0.13457   17.75348   16.86248   25.47338
     298      444        3     0.22841   17.68946   16.79977   24.07925
     299      444        3    -0.06135   16.75798   15.94339   23.44795
     300      444        3    -0.13457   15.90065   15.18054   24.24856
     301      444        3    -0.13457   15.95887   15.23449   25.63750
     302      444        4    -0.01092   19.37292   18.48813   23.84575
     303      444        3     0.72919   16.21311   15.25603   17.73719
     304      444        3    -0.06135   16.40117   15.46407   19.19896
     305      444        3    -0.13457   15.40890   16.15229   19.91190
     306      444        3     0.22841   15.53495   16.33591   21.28756
     307      444        3    -0.06135   16.66987   15.83630   21.96960
     308      444        3    -0.13457   17.66347   15.18354   21.23060
     309      444        3    -0.13457   17.53906   14.98386   19.85719
     310      444        4    -0.01092   13.40119   17.41289   21.40629
     311      444        3     0.72919   13.39984   16.45328   31.48909
     312      444        3    -0.06135   11.90876   16.50054   31.51515
     313      444        3    -0.13457   11.24859   17.40584   32.36081
     314      444        3     0.22841    9.85227   17.44168   32.39636
     315      444        3    -0.06135    9.09675   16.56825   31.57952
     316      444        3    -0.13457    9.77925   15.66975   30.75078
     317      444        3    -0.13457   11.16941   15.63026   30.70643
     318      444        4    -0.01092    9.85397   19.12632   34.10389
     319      444        3     0.72919    3.32372   16.40032   31.30426
     320      444        3    -0.06135    4.80692   16.49562   31.40349
     321      444        3    -0.13457    5.50162   15.45945   32.04498
     322      444        3     0.22841    6.89195   15.49365   32.12972
     323      444        3    -0.06135    7.61086   16.58043   31.57763
     324      444        3    -0.13457    6.89349   17.61853   30.96996
     325      444        3    -0.13457    5.50369   17.58595   30.87056
     326      444        4    -0.01092    6.94004   13.36225   33.20491
     327      444        3     0.72919   16.91601   12.68483   31.54121
     328      444        3    -0.06135   16.87085   11.19444   31.56796
     329      444        3    -0.13457   17.71104   10.48033   32.43519
     330      444        3     0.22841   17.67686    9.08373   32.45366
     331      444        3    -0.06135   16.79208    8.38201   31.60179
     332      444        3    -0.13457   15.97425    9.11825   30.73663
     333      444        3    -0.13457   15.99939   10.50878   30.71420
     334      444        4    -0.01092   19.45450    8.98429   34.05729
     335      444        3     0.72919   16.10750    2.64308   31.44612
     336      444        3    -0.06135   16.32370    4.11497   31.53137
     337      444        3    -0.13457   16.92645    4.77153   30.44807
     338      444        3     0.22841   17.11107    6.15314   30.47845
     339      444        3    -0.06135   16.69962    6.89984   31.60869
     340      444        3    -0.13457   16.13525    6.21692   32.69286
     341      444        3    -0.13457   15.93448    4.83844   32.66455
     342      444        4    -0.01092   18.04423    6.14117   28.27491
     343      444        3     0.72919    4.70573    4.66914   24.03317
     344      444        3    -0.06135    4.76506    4.74939   25.52101
     345      444        3    -0.13457    3.90037    3.96630   26.30126
     346      444        3     0.22841    3.96441    4.02896   27.69555
     347      444        3    -0.06135    4.89609    4.88510   28.32686
     348      444        3    -0.13457    5.75350    5.64785   27.52625
     349      444        3    -0.13457    5.69520    5.59387   26.13592
     350      444        4    -0.01092    2.28065    2.34080   27.92906
     351      444        3     0.72919    5.44112    5.57322   34.03762
     352      444        3    -0.06135    5.25295    5.36468   32.57602
     353      444        3    -0.13457    6.24531    4.67653   31.86291
     354      444        3     0.22841    6.11920    4.49277   30.48673
     355      444        3    -0.06135    4.98418    4.99214   29.80520
     356      444        3    -0.13457    3.99052    5.64476   30.54437
     357      444        3    -0.13457    4.11494    5.84455   31.91761
     358      444        4    -0.01092    8.25317    3.41615   30.36851
     359      444        3     0.72919    8.25413    4.37755   20.28278
     360      444        3    -0.06135    9.74522    4.33010   20.25776
     361      444        3    -0.13457   10.40561    3.42366   19.41348
     362      444        3     0.22841   11.80193    3.38809   19.37793
     363      444        3    -0.06135   12.55728    4.26273   20.19355
     364      444        3    -0.13457   11.87444    5.16217   21.01971
     365      444        3    -0.13457   10.48436    5.20159   21.06527
     366      444        4    -0.01092   11.80027    1.70158   17.67229
     367      444        3     0.72919   18.33025    4.42910   20.47055
     368      444        3    -0.06135   16.84698    4.33433   20.36993
     369      444        3    -0.13457   16.15286    5.37122   19.73017
     370      444        3     0.22841   14.76248    5.33738   19.64388
     371      444        3    -0.06135   14.04311    4.25045   20.19580
     372      444        3    -0.13457   14.75998    3.21164   20.80156