Created on Tue Feb 06 14:48:11 2018 

        3392 atoms
        3968 bonds
        7296 angles
        8448 dihedrals
        3840 impropers

           7 atom types
          13 bond types
          27 angle types
           6 dihedral types
           1 improper types
           0.000000  37.194000 xlo xhi
           0.000000  41.334527 ylo yhi
           0.000000  31.336235 zlo zhi
         -18.437040  -0.036384 -10.629543 xy xz yz

Masses

    1    65.380000000 # Zn3+2
    2     1.007940000 # H_
    3    12.010700000 # C_R
    4    12.010700000 # C_3
    5    14.006700000 # N_R
    6    15.999400000 # O_R
    7    15.999400000 # O_3_z

Bond Coeffs

    1      165.837318        1.881712  # Zn3+2 N_R
    2      160.291409        1.840266  # Zn3+2 O_R
    3      206.072830        1.692429  # Zn3+2 O_3_z
    4      357.440381        1.081418  # H_ C_R
    5      850.878848        0.861362  # H_ O_3_z
    6      331.069389        1.109401  # H_ C_3
    7      462.655054        1.379256  # C_R C_R
    8      646.680887        1.311940  # C_R O_R
    9      391.669513        1.458000  # C_R C_R
   10      663.718927        1.345073  # C_R N_R
   11      369.943935        1.486000  # C_R C_3
   12      720.012703        1.265797  # C_3 O_3_z
   13      349.795899        1.514000  # C_3 C_3

Angle Coeffs

    1                      fourier       65.120583        0.343737        0.374972        0.281246 # N_R Zn3+2 O_3_z
    2                      fourier       53.299639        0.343737        0.374972        0.281246 # N_R Zn3+2 O_R
    3                      fourier       62.467680        0.343737        0.374972        0.281246 # O_R Zn3+2 O_3_z
    4                      fourier       55.784590        0.343737        0.374972        0.281246 # N_R Zn3+2 N_R
    5                      fourier       50.968023        0.343737        0.374972        0.281246 # O_R Zn3+2 O_R
    6                      fourier       77.472685        0.343737        0.374972        0.281246 # O_3_z Zn3+2 O_3_z
    7              cosine/periodic      117.010657              -1               3 # C_R C_R C_R
    8              cosine/periodic       76.817955              -1               3 # H_ C_R C_R
    9              cosine/periodic      137.761490              -1               3 # O_R C_R C_R
   10              cosine/periodic      217.450257              -1               3 # O_R C_R O_R
   11              cosine/periodic      101.626578              -1               3 # C_R C_R C_R
   12              cosine/periodic      165.695700              -1               3 # N_R C_R C_R
   13              cosine/periodic      136.632200              -1               3 # C_3 C_R N_R
   14              cosine/periodic      234.844275              -1               3 # N_R C_R N_R
   15                      fourier       69.847816        0.343737        0.374972        0.281246 # H_ C_3 C_3
   16                      fourier       97.888497        0.343737        0.374972        0.281246 # C_R C_3 C_3
   17                      fourier       73.868412        0.343737        0.374972        0.281246 # H_ C_3 C_R
   18                      fourier      140.430538        0.343737        0.374972        0.281246 # H_ C_3 O_3_z
   19                      fourier      171.211471        0.343737        0.374972        0.281246 # O_3_z C_3 C_3
   20                      fourier      180.345994        0.343737        0.374972        0.281246 # O_3_z C_3 C_R
   21                      fourier       61.342703        0.343737        0.374972        0.281246 # H_ C_3 H_
   22              cosine/periodic       36.261492              -1               3 # Zn3+2 N_R C_R
   23              cosine/periodic      132.654363              -1               3 # C_R N_R C_R
   24              cosine/periodic       50.430477              -1               3 # Zn3+2 O_R C_R
   25                      fourier       12.695596        1.898490        2.651251        0.799497 # Zn3+2 O_3_z Zn3+2
   26                      fourier       30.309018        1.898490        2.651251        0.799497 # Zn3+2 O_3_z H_
   27                      fourier      105.399902        1.898490        2.651251        0.799497 # C_3 O_3_z H_

Dihedral Coeffs

    1        1.497136              -1               2 # C_R C_R C_R N_R
    2        2.245703              -1               2 # O_R C_R O_R Zn3+2
    3        0.555556              -1               2 # O_R C_R C_R C_R
    4        0.083333               1               3 # N_R C_R C_3 C_3
    5        0.128665               1               2 # H_ C_3 O_3_z H_
    6        0.066219               1               3 # H_ C_3 C_3 H_

Improper Coeffs

    1        2.000000        1.000000       -1.000000        0.000000               0 # C_R C_R H_ C_R

Pair Coeffs

    1        0.124000        2.461553 # Zn3+2 Zn3+2
    2        0.044000        2.571134 # H_ H_
    3        0.105000        3.430851 # C_R C_R
    4        0.105000        3.430851 # C_3 C_3
    5        0.069000        3.260689 # N_R N_R
    6        0.060000        3.118146 # O_R O_R
    7        0.060000        3.118146 # O_3_z O_3_z

Atoms

       1      444        1     0.91541   -1.75819    3.06601   11.42707
       2      444        1     0.91541   -6.36757   13.39976   11.42707
       3      444        1     0.91541    7.54005    3.06611   11.42707
       4      444        1     0.91541    2.93062   13.39980   11.42707
       5      444        1     0.91541    2.89242   -0.71418   12.07620
       6      444        1     0.91541   -1.71700    9.61951   12.07620
       7      444        1     0.91541   12.19062   -0.71418   12.07620
       8      444        1     0.91541    7.58125    9.61957   12.07620
       9      444        1     0.91541    6.42887    1.95337    4.24136
      10      444        1     0.91541    1.81950   12.28712    4.24136
      11      444        1     0.91541   15.72720    1.95335    4.24136
      12      444        1     0.91541   11.11778   12.28704    4.24136
      13      444        1     0.91541    1.77834    5.73356    3.59223
      14      444        1     0.91541   -2.83106   16.06725    3.59223
      15      444        1     0.91541   11.07662    5.73350    3.59223
      16      444        1     0.91541    6.46726   16.06723    3.59223
      17      444        1     1.11764    2.30416   -3.98470   11.75093
      18      444        1     1.11764   -2.30521    6.34897   11.75093
      19      444        1     1.11764   11.60238   -3.98466   11.75093
      20      444        1     1.11764    6.99301    6.34909   11.75093
      21      444        1     1.11764   -2.24273   19.33793    3.91703
      22      444        1     1.11764    2.36639    9.00444    3.91703
      23      444        1     1.11764    7.05555   19.33791    3.91703
      24      444        1     1.11764   11.66472    9.00432    3.91703
      25      444        2     0.11460    6.21710    3.03195    7.35665
      26      444        2     0.11460    1.60771   13.36567    7.35665
      27      444        2     0.11460   15.51541    3.03203    7.35618
      28      444        2     0.11460   10.90602   13.36563    7.35665
      29      444        2     0.11460    2.80888    6.65251    6.56525
      30      444        2     0.11460   -1.80064   16.98609    6.56541
      31      444        2     0.11460   12.10710    6.65233    6.56541
      32      444        2     0.11460    7.49777   16.98629    6.56494
      33      444        2     0.11460    4.10257    6.54777    8.70051
      34      444        2     0.11460   -0.50695   16.88141    8.70051
      35      444        2     0.11460   13.40079    6.54765    8.70051
      36      444        2     0.11460    8.79150   16.88145    8.70051
      37      444        2     0.42917    5.38531    3.42703    1.64985
      38      444        2     0.42917    0.77591   13.76065    1.65032
      39      444        2     0.42917   14.68363    3.42697    1.64985
      40      444        2     0.42917   10.07422   13.76045    1.65048
      41      444        2     0.11460    3.18969    3.80720    2.00270
      42      444        2     0.11460   -1.41969   14.14093    2.00270
      43      444        2     0.11460   12.48803    3.80716    2.00270
      44      444        2     0.11460    7.87862   14.14087    2.00270
      45      444        2     0.11460    2.55595    1.43455    1.74668
      46      444        2     0.11460   -2.05339   11.76827    1.74668
      47      444        2     0.11460   11.85428    1.43451    1.74668
      48      444        2     0.11460    7.24484   11.76823    1.74668
      49      444        2     0.11460    3.34003    1.02905    3.31067
      50      444        2     0.11460   -1.26932   11.36276    3.31067
      51      444        2     0.11460   12.63835    1.02901    3.31067
      52      444        2     0.11460    8.02888   11.36272    3.31067
      53      444        2     0.11460    1.88207    2.05343    3.27056
      54      444        2     0.11460   -2.72729   12.38712    3.27056
      55      444        2     0.11460   11.18039    2.05337    3.27056
      56      444        2     0.11460    6.57095   12.38712    3.27056
      57      444        2     0.42917   -0.90844    4.67688   13.13114
      58      444        2     0.42917   -5.51779   15.01064   13.13114
      59      444        2     0.42917    8.38983    4.67699   13.13114
      60      444        2     0.42917    3.78039   15.01068   13.13114
      61      444        2     0.11460    1.56373    4.65958    0.47474
      62      444        2     0.11460   -3.04567   14.99323    0.47474
      63      444        2     0.11460   10.86198    4.65956    0.47474
      64      444        2     0.11460    6.25259   14.99332    0.47474
      65      444        2     0.11460    7.45347    1.03950    1.26896
      66      444        2     0.11460    2.84409   11.37327    1.26896
      67      444        2     0.11460   16.75185    1.03942    1.26912
      68      444        2     0.11460   12.14241   11.37312    1.26912
      69      444        2     0.11460    8.72587   -4.16930   14.80042
      70      444        2     0.11460    4.11647    6.16448   14.80042
      71      444        2     0.11460   18.02426   -4.16934   14.80042
      72      444        2     0.11460   13.41483    6.16433   14.80042
      73      444        2     0.42917    0.74562    4.26947    6.17386
      74      444        2     0.42917   -3.86381   14.60316    6.17386
      75      444        2     0.42917   10.04389    4.26936    6.17386
      76      444        2     0.42917    5.43449   14.60314    6.17386
      77      444        2     0.11460   -1.45239    3.88478    5.83434
      78      444        2     0.11460   -6.06183   14.21847    5.83434
      79      444        2     0.11460    7.84585    3.88474    5.83434
      80      444        2     0.11460    3.23648   14.21849    5.83434
      81      444        2     0.11460   -2.08892    6.25645    6.09067
      82      444        2     0.11460   -6.69834   16.59012    6.09067
      83      444        2     0.11460    7.20937    6.25637    6.09082
      84      444        2     0.11460    2.59998   16.59034    6.09020
      85      444        2     0.11460   -1.31111    6.66218    4.52370
      86      444        2     0.11460   -5.92053   16.99587    4.52370
      87      444        2     0.11460    7.98720    6.66224    4.52339
      88      444        2     0.11460    3.37780   16.99591    4.52370
      89      444        2     0.11460   -2.76778    5.63665    4.56945
      90      444        2     0.11460   -7.37720   15.97034    4.56945
      91      444        2     0.11460    6.53052    5.63660    4.56961
      92      444        2     0.11460    1.92111   15.97035    4.56961
      93      444        2     0.42917    3.73328   -2.33573   10.37793
      94      444        2     0.42917   -0.87614    7.99799   10.37793
      95      444        2     0.42917   13.03143   -2.33569   10.37793
      96      444        2     0.42917    8.42207    7.99805   10.37793
      97      444        2     0.11460   -1.54643    1.98735    8.31194
      98      444        2     0.11460   -6.15578   12.32374    8.30410
      99      444        2     0.11460    7.75186    1.98750    8.31178
     100      444        2     0.11460    3.14239   12.32112    8.31194
     101      444        2     0.11460    1.86192   -1.63302    9.10302
     102      444        2     0.11460   -2.74753    8.70060    9.10318
     103      444        2     0.11460   11.16009   -1.63307    9.10318
     104      444        2     0.11460    6.55076    8.70602    9.08751
     105      444        2     0.11460    0.56822   -1.52836    6.96793
     106      444        2     0.11460   -4.04124    8.80533    6.96793
     107      444        2     0.11460    9.86639   -1.52834    6.96793
     108      444        2     0.11460    5.25702    8.80542    6.96793
     109      444        2     0.42917   -0.71462    1.59317   14.01670
     110      444        2     0.42917   -5.32403   11.92654   14.01795
     111      444        2     0.42917    8.58359    1.59293   14.01795
     112      444        2     0.42917    3.97417   11.92658   14.01795
     113      444        2     0.11460    1.48094    1.21228   13.66573
     114      444        2     0.11460   -3.12845   11.54599   13.66573
     115      444        2     0.11460   10.77917    1.21234   13.66573
     116      444        2     0.11460    6.16976   11.54606   13.66573
     117      444        2     0.11460    2.11481    3.58484   13.92175
     118      444        2     0.11460   -2.49454   13.91861   13.92159
     119      444        2     0.11460   11.41313    3.58493   13.92159
     120      444        2     0.11460    6.80365   13.91862   13.92175
     121      444        2     0.11460    1.33075    3.99036   12.35760
     122      444        2     0.11460   -3.27860   14.32405   12.35760
     123      444        2     0.11460   10.62905    3.99038   12.35760
     124      444        2     0.11460    6.01962   14.32411   12.35760
     125      444        2     0.11460    2.78867    2.96594   12.39771
     126      444        2     0.11460   -1.82071   13.29963   12.39771
     127      444        2     0.11460   12.08694    2.96591   12.39771
     128      444        2     0.11460    7.47752   13.29969   12.39771
     129      444        2     0.42917    5.57916    0.34255    2.53729
     130      444        2     0.42917    0.96977   10.67635    2.53729
     131      444        2     0.42917   14.87748    0.34255    2.53729
     132      444        2     0.42917   10.26805   10.67623    2.53729
     133      444        2     0.11460    3.10700    0.35990   15.19369
     134      444        2     0.11460   -1.50243   10.69357   15.19369
     135      444        2     0.11460   12.40523    0.35983   15.19369
     136      444        2     0.11460    7.79586   10.69359   15.19369
     137      444        2     0.11460   -2.78275    3.97980   14.39947
     138      444        2     0.11460   -7.39212   14.31371   14.39900
     139      444        2     0.11460    6.51544    3.97995   14.39931
     140      444        2     0.11460    1.90602   14.31365   14.39931
     141      444        2     0.11460   -4.05520    9.18869    0.86801
     142      444        2     0.11460   -8.66459   19.52245    0.86801
     143      444        2     0.11460    5.24298    9.18882    0.86801
     144      444        2     0.11460    0.63355   19.52249    0.86801
     145      444        2     0.42917    3.92516    0.74993    9.49457
     146      444        2     0.42917   -0.68429   11.08364    9.49457
     147      444        2     0.42917   13.22335    0.74999    9.49457
     148      444        2     0.42917    8.61401   11.08373    9.49457
     149      444        2     0.11460    6.12317    1.13457    9.83409
     150      444        2     0.11460    1.51372   11.46829    9.83409
     151      444        2     0.11460   15.42138    1.13460    9.83409
     152      444        2     0.11460   10.81202   11.46833    9.83409
     153      444        2     0.11460    6.75966   -1.23709    9.57776
     154      444        2     0.11460    2.15023    9.09662    9.57776
     155      444        2     0.11460   16.05782   -1.23706    9.57761
     156      444        2     0.11460   11.44845    9.09667    9.57761
     157      444        2     0.11460    5.98185   -1.64284   11.14473
     158      444        2     0.11460    1.37243    8.69085   11.14473
     159      444        2     0.11460   15.28002   -1.64281   11.14458
     160      444        2     0.11460   10.67064    8.69092   11.14458
     161      444        2     0.11460    7.43852   -0.61734   11.09898
     162      444        2     0.11460    2.82909    9.71638   11.09898
     163      444        2     0.11460   16.73672   -0.61732   11.09882
     164      444        2     0.11460   12.12734    9.71641   11.09882
     165      444        2     0.42917    0.93739    7.35515    5.29034
     166      444        2     0.42917   -3.67204   17.68885    5.29034
     167      444        2     0.42917   10.23570    7.35504    5.29050
     168      444        2     0.42917    5.62633   17.68880    5.29050
     169      444        3    -0.12085    5.48392    3.81569    7.18509
     170      444        3    -0.12085    0.87449   14.14939    7.18509
     171      444        3    -0.12085   14.78220    3.81561    7.18509
     172      444        3    -0.12085   10.17285   14.14937    7.18509
     173      444        3     0.69560   -3.32770    4.74914    9.45352
     174      444        3     0.69560   -7.93717   15.08286    9.45352
     175      444        3     0.69560    5.97044    4.74918    9.45352
     176      444        3     0.69560    1.36112   15.08292    9.45352
     177      444        3    -0.16651    5.21503    4.78121    8.16278
     178      444        3    -0.16651    0.60569   15.11497    8.16278
     179      444        3    -0.16651   14.51339    4.78119    8.16278
     180      444        3    -0.16651    9.90393   15.11489    8.16278
     181      444        3    -0.12085    3.53426    5.86012    6.73964
     182      444        3    -0.12085   -1.07520   16.19379    6.73964
     183      444        3    -0.12085   12.83252    5.86004    6.73964
     184      444        3    -0.12085    8.22317   16.19379    6.73964
     185      444        3     0.16698    4.79445    3.90038    5.97692
     186      444        3     0.16698    0.18507   14.23411    5.97692
     187      444        3     0.16698   14.09277    3.90071    5.97582
     188      444        3     0.16698    9.48336   14.23405    5.97692
     189      444        3     0.36401    3.97883    3.65195    3.97030
     190      444        3     0.36401   -0.63057   13.98566    3.97030
     191      444        3     0.36401   13.27714    3.65188    3.97030
     192      444        3     0.36401    8.66773   13.98560    3.97030
     193      444        3     0.16698    3.79931    4.89093    5.76054
     194      444        3     0.16698   -0.81016   15.22460    5.76054
     195      444        3     0.16698   13.09756    4.89084    5.76054
     196      444        3     0.16698    8.48819   15.22460    5.76054
     197      444        3    -0.12085    4.25898    5.80029    7.92462
     198      444        3    -0.12085   -0.35053   16.13387    7.92478
     199      444        3    -0.12085   13.55720    5.80011    7.92478
     200      444        3    -0.12085    8.94790   16.13396    7.92462
     201      444        4     0.15351    3.69496    3.04882    2.62018
     202      444        4     0.15351   -0.91442   13.38256    2.62018
     203      444        4     0.15351   12.99327    3.04878    2.62018
     204      444        4     0.15351    8.38385   13.38249    2.62018
     205      444        4    -0.35079    2.81374    1.80988    2.74521
     206      444        4    -0.35079   -1.79562   12.14359    2.74521
     207      444        4    -0.35079   12.11205    1.80984    2.74521
     208      444        4    -0.35079    7.50260   12.14355    2.74521
     209      444        3    -0.12085    0.83021    3.87620    0.64647
     210      444        3    -0.12085   -3.77919   14.20985    0.64647
     211      444        3    -0.12085   10.12846    3.87618    0.64647
     212      444        3    -0.12085    5.51906   14.20996    0.64647
     213      444        3     0.69560    1.29832   -2.37567   14.04772
     214      444        3     0.69560   -3.31106    7.95798   14.04772
     215      444        3     0.69560   10.59656   -2.37567   14.04772
     216      444        3     0.69560    5.98722    7.95806   14.04772
     217      444        3    -0.16651    0.54219   -2.40408   15.33752
     218      444        3    -0.16651   -4.06721    7.92958   15.33752
     219      444        3    -0.16651    9.84042   -2.40426   15.33799
     220      444        3    -0.16651    5.23107    7.92950   15.33799
     221      444        3    -0.12085    8.17883    1.83172    1.09395
     222      444        3    -0.12085    3.56948   12.16548    1.09395
     223      444        3    -0.12085   17.47719    1.83170    1.09395
     224      444        3    -0.12085   12.86777   12.16537    1.09395
     225      444        3     0.16698    0.14162    3.79141    1.85526
     226      444        3     0.16698   -4.46779   14.12508    1.85526
     227      444        3     0.16698    9.43988    3.79136    1.85526
     228      444        3     0.16698    4.83050   14.12514    1.85526
     229      444        3     0.36401   -0.67164    4.03933    3.86266
     230      444        3     0.36401   -5.28108   14.37302    3.86266
     231      444        3     0.36401    8.62661    4.03931    3.86266
     232      444        3     0.36401    4.01722   14.37306    3.86266
     233      444        3     0.16698   -0.85273    2.80042    2.07305
     234      444        3     0.16698   -5.46213   13.13409    2.07305
     235      444        3     0.16698    8.44550    2.80040    2.07305
     236      444        3     0.16698    3.83610   13.13420    2.07305
     237      444        3    -0.12085   -0.41459   -3.42252   15.57662
     238      444        3    -0.12085   -5.02400    6.91115   15.57662
     239      444        3    -0.12085    8.88359   -3.42250   15.57662
     240      444        3    -0.12085    4.27419    6.91128   15.57662
     241      444        4     0.15351   -0.95121    4.64299    5.21325
     242      444        4     0.15351   -5.56062   14.97667    5.21325
     243      444        4     0.15351    8.34704    4.64290    5.21341
     244      444        4     0.15351    3.73767   14.97666    5.21341
     245      444        4    -0.35079   -1.83440    5.88092    5.09135
     246      444        4    -0.35079   -6.44382   16.21461    5.09135
     247      444        4    -0.35079    7.46388    5.88089    5.09135
     248      444        4    -0.35079    2.85449   16.21465    5.09135
     249      444        3    -0.12085   -0.81322    1.20366    8.48335
     250      444        3    -0.12085   -5.42261   11.53741    8.48335
     251      444        3    -0.12085    8.48508    1.20378    8.48335
     252      444        3    -0.12085    3.87560   11.53746    8.48335
     253      444        3     0.69560    7.99822    0.27008    6.21507
     254      444        3     0.69560    3.38905   10.60426    6.21398
     255      444        3     0.69560   17.29674    0.27017    6.21492
     256      444        3     0.69560   12.68727   10.60381    6.21507
     257      444        3    -0.16651   -0.54435    0.23812    7.50565
     258      444        3    -0.16651   -5.15381   10.57179    7.50565
     259      444        3    -0.16651    8.75368    0.23800    7.50581
     260      444        3    -0.16651    4.14448   10.57192    7.50565
     261      444        3    -0.12085    1.13649   -0.84071    8.92879
     262      444        3    -0.12085   -3.47296    9.49297    8.92879
     263      444        3    -0.12085   10.43463   -0.84071    8.92879
     264      444        3    -0.12085    5.82531    9.49307    8.92879
     265      444        3     0.16698   -0.12377    1.11892    9.69167
     266      444        3     0.16698   -4.73317   11.45264    9.69167
     267      444        3     0.16698    9.17444    1.11896    9.69167
     268      444        3     0.16698    4.56507   11.45270    9.69167
     269      444        3     0.36401    0.69189    1.36745   11.69813
     270      444        3     0.36401   -3.91750   11.70116   11.69813
     271      444        3     0.36401    9.99014    1.36751   11.69813
     272      444        3     0.36401    5.38071   11.70123   11.69813
     273      444        3     0.16698    0.87144    0.12847    9.90789
     274      444        3     0.16698   -3.73797   10.46218    9.90789
     275      444        3     0.16698   10.16969    0.12853    9.90789
     276      444        3     0.16698    5.56026   10.46256    9.90695
     277      444        3    -0.12085    0.41178   -0.78088    7.74381
     278      444        3    -0.12085   -4.19763    9.55284    7.74381
     279      444        3    -0.12085    9.71003   -0.78060    7.74318
     280      444        3    -0.12085    5.10060    9.55290    7.74381
     281      444        4     0.15351    0.97574    1.97060   13.04825
     282      444        4     0.15351   -3.63364   12.30433   13.04825
     283      444        4     0.15351   10.27398    1.97116   13.04684
     284      444        4     0.15351    5.66457   12.30439   13.04825
     285      444        4    -0.35079    1.85700    3.20955   12.92306
     286      444        4    -0.35079   -2.75235   13.54324   12.92306
     287      444        4    -0.35079   11.15530    3.20957   12.92306
     288      444        4    -0.35079    6.54586   13.54333   12.92306
     289      444        3    -0.12085    3.84050    1.14326   15.02196
     290      444        3    -0.12085   -0.76893   11.47693   15.02196
     291      444        3    -0.12085   13.13878    1.14317   15.02196
     292      444        3    -0.12085    8.52938   11.47695   15.02196
     293      444        3     0.69560    3.37228    7.39525    1.62071
     294      444        3     0.69560   -1.23709   17.72888    1.62071
     295      444        3     0.69560   12.67055    7.39515    1.62071
     296      444        3     0.69560    8.06121   17.72891    1.62071
     297      444        3    -0.16651    4.12846    7.42375    0.33044
     298      444        3    -0.16651   -0.48092   17.75788    0.32903
     299      444        3    -0.16651   13.42672    7.42367    0.33044
     300      444        3    -0.16651    8.81739   17.75741    0.33044
     301      444        3    -0.12085   -3.50815    3.18761   14.57448
     302      444        3    -0.12085   -8.11753   13.52137   14.57448
     303      444        3    -0.12085    5.79008    3.18771   14.57448
     304      444        3    -0.12085    1.18066   13.52141   14.57448
     305      444        3     0.16698    4.52910    1.22801   13.81317
     306      444        3     0.16698   -0.08032   11.56170   13.81317
     307      444        3     0.16698   13.82734    1.22797   13.81317
     308      444        3     0.16698    9.21797   11.56172   13.81317
     309      444        3     0.36401    5.34242    0.98003   11.80577
     310      444        3     0.36401    0.73297   11.31374   11.80577
     311      444        3     0.36401   14.64063    0.98001   11.80577
     312      444        3     0.36401   10.03126   11.31376   11.80577
     313      444        3     0.16698    5.52347    2.21897   13.59538
     314      444        3     0.16698    0.91403   12.55267   13.59538
     315      444        3     0.16698   14.82175    2.21889   13.59538
     316      444        3     0.16698   10.21236   12.55267   13.59538
     317      444        3    -0.12085    5.08530    8.44198    0.09182
     318      444        3    -0.12085    0.47587   18.77567    0.09182
     319      444        3    -0.12085   14.38363    8.44188    0.09182
     320      444        3    -0.12085    9.77424   18.77563    0.09182
     321      444        4     0.15351    5.62197    0.37638   10.45518
     322      444        4     0.15351    1.01255   10.71007   10.45518
     323      444        4     0.15351   14.92017    0.37638   10.45518
     324      444        4     0.15351   10.31081   10.71012   10.45518
     325      444        4    -0.35079    6.50515   -0.86156   10.57708
     326      444        4    -0.35079    1.89573    9.47213   10.57708
     327      444        4    -0.35079   15.80333   -0.86160   10.57708
     328      444        4    -0.35079   11.19396    9.47215   10.57708
     329      444        5    -0.51457    4.90352    3.14179    4.81434
     330      444        5    -0.51457    0.29409   13.47551    4.81434
     331      444        5    -0.51457   14.20180    3.14173    4.81434
     332      444        5    -0.51457    9.59240   13.47546    4.81434
     333      444        5    -0.51457    3.28381    4.70081    4.48155
     334      444        5    -0.51457   -1.32562   15.03468    4.48108
     335      444        5    -0.51457   12.58209    4.70074    4.48155
     336      444        5    -0.51457    7.97269   15.03464    4.48108
     337      444        5    -0.51457    0.25140    4.55066    3.01611
     338      444        5    -0.51457   -4.35801   14.88435    3.01611
     339      444        5    -0.51457    9.54968    4.55014    3.01752
     340      444        5    -0.51457    4.94026   14.88392    3.01752
     341      444        5    -0.51457   -1.36621    2.98950    3.35298
     342      444        5    -0.51457   -5.97563   13.32319    3.35298
     343      444        5    -0.51457    7.93202    2.98948    3.35298
     344      444        5    -0.51457    3.32264   13.32325    3.35298