Created on Tue Feb 06 14:43:10 2018 

        1920 atoms
        2176 bonds
        3648 angles
        4864 dihedrals
        2688 impropers

           6 atom types
           9 bond types
          14 angle types
           7 dihedral types
           1 improper types
           0.000000  37.252000 xlo xhi
           0.000000  29.043370 ylo yhi
           0.000000  27.648904 zlo zhi
          -1.289900   0.064181   0.034248 xy xz yz

Masses

    1    65.380000000 # Zn3f2
    2     1.007940000 # H_
    3    12.010700000 # C_R
    4    12.010700000 # C_3
    5    15.999400000 # O_R
    6    15.999400000 # O_3

Bond Coeffs

    1      148.759211        1.886642  # Zn3f2 O_R
    2      357.440381        1.081418  # H_ C_R
    3      331.069389        1.109401  # H_ C_3
    4      462.655054        1.379256  # C_R C_R
    5      391.669513        1.458000  # C_R C_R
    6      572.510195        1.366311  # C_R O_3
    7      646.680887        1.311940  # C_R O_R
    8      369.943935        1.486000  # C_3 C_R
    9      539.248552        1.393845  # C_3 O_3

Angle Coeffs

    1                      fourier       45.004281        0.343737        0.374972        0.281246 # O_R Zn3f2 O_R
    2              cosine/periodic      101.626578              -1               3 # C_R C_R C_R
    3              cosine/periodic      117.010657              -1               3 # C_R C_R C_R
    4              cosine/periodic       76.817955              -1               3 # H_ C_R C_R
    5              cosine/periodic      144.104200              -1               3 # O_3 C_R C_R
    6              cosine/periodic      137.761490              -1               3 # C_R C_R O_R
    7              cosine/periodic      217.450257              -1               3 # O_R C_R O_R
    8                      fourier       61.342703        0.343737        0.374972        0.281246 # H_ C_3 H_
    9                      fourier      107.207104        0.343737        0.374972        0.281246 # O_3 C_3 H_
   10                      fourier       73.868412        0.343737        0.374972        0.281246 # C_R C_3 H_
   11                      fourier      144.336660        0.343737        0.374972        0.281246 # C_R C_3 O_3
   12              cosine/periodic       96.739224              -1               3 # C_3 C_R C_R
   13              cosine/periodic       46.721183              -1               3 # Zn3f2 O_R C_R
   14                      fourier      168.527890        0.300235        0.267331        0.266745 # C_3 O_3 C_R

Dihedral Coeffs

    1        1.497136              -1               2 # C_R C_R C_R H_
    2        0.555556              -1               2 # C_R C_R C_R O_R
    3        0.833333               1               2 # C_R C_R O_3 C_3
    4        2.245703              -1               2 # O_R C_R O_R Zn3f2
    5        0.416667              -1               2 # H_ C_3 C_R C_R
    6        0.128665               1               2 # H_ C_3 O_3 C_R
    7        0.083333               1               3 # C_R C_R C_3 H_

Improper Coeffs

    1        2.000000        1.000000       -1.000000        0.000000               0 # C_R C_R C_R C_R

Pair Coeffs

    1        0.124000        2.461553 # Zn3f2 Zn3f2
    2        0.044000        2.571134 # H_ H_
    3        0.105000        3.430851 # C_R C_R
    4        0.105000        3.430851 # C_3 C_3
    5        0.060000        3.118146 # O_R O_R
    6        0.060000        3.118146 # O_3 O_3

Atoms

       1      444        1     1.17299    6.45166    1.76502    9.22589
       2      444        1     1.17299   15.76453    1.76502    9.22589
       3      444        1     1.03270    9.20862    1.54821   10.47672
       4      444        1     1.03270   18.52147    1.54820   10.47672
       5      444        1     1.17299    2.61531    5.53672   23.04481
       6      444        1     1.17299   11.92816    5.53672   23.04481
       7      444        1     1.03270   -0.13573    5.75299   24.30477
       8      444        1     1.03270    9.17712    5.75299   24.30477
       9      444        1     1.17299    2.28036   12.79062   18.42246
      10      444        1     1.17299   11.59321   12.79062   18.42246
      11      444        1     1.03270   -0.47658   13.00745   17.17190
      12      444        1     1.03270    8.83627   13.00743   17.17190
      13      444        1     1.17299    6.11670    9.01896    4.60382
      14      444        1     1.17299   15.42956    9.01895    4.60382
      15      444        1     1.03270    8.86773    8.80270    3.34358
      16      444        1     1.03270   18.18058    8.80270    3.34358
      17      444        2     0.09539    0.84067    4.81328   10.11342
      18      444        2     0.09539   10.15350    4.81328   10.11342
      19      444        2     0.09539    1.32897    8.07744    7.32502
      20      444        2     0.09539   10.64182    8.07742    7.32502
      21      444        2     0.09539    7.04275    5.69511    7.26337
      22      444        2     0.09539   16.35560    5.69512    7.26337
      23      444        2     0.09539    3.02819    5.17922   10.31083
      24      444        2     0.09539   12.34101    5.17924   10.31083
      25      444        2     0.09539    2.06640    6.31405   11.29596
      26      444        2     0.09539   11.37923    6.31409   11.29596
      27      444        2     0.09539    5.44929    5.67816    9.85407
      28      444        2     0.09539   14.76213    5.67802    9.85462
      29      444        2     0.09539    7.50931    6.74425   10.71616
      30      444        2     0.09539   16.82215    6.74409   10.71616
      31      444        2     0.09539    5.12717    9.36180   13.16973
      32      444        2     0.09539   14.43999    9.36198   13.16945
      33      444        2     0.09539    3.07851    8.23366   12.36735
      34      444        2     0.09539   12.39133    8.23384   12.36901
      35      444        2     0.09539   18.12563    8.58510   10.64980
      36      444        2     0.09539    8.81242    8.58527   10.64980
      37      444        2     0.09539    1.53450    9.69145   11.48895
      38      444        2     0.09539   10.84729    9.69164   11.48812
      39      444        2     0.09539   -0.36038   10.30416   15.30312
      40      444        2     0.09539    8.95253   10.30400   15.30312
      41      444        2     0.09539    6.90482    9.22861   14.46065
      42      444        2     0.09539   16.21761    9.22877   14.46065
      43      444        2     0.09539    1.82009   11.11434   14.99870
      44      444        2     0.09539   11.13294   11.11435   14.99870
      45      444        2     0.09539    2.79924    9.92216   14.10509
      46      444        2     0.09539   12.11209    9.92216   14.10509
      47      444        2     0.09539    3.36395   13.44279   11.49614
      48      444        2     0.09539   12.67680   13.44279   11.49614
      49      444        2     0.09539    7.10697   14.04275   13.56842
      50      444        2     0.09539   16.41980   14.04282   13.56842
      51      444        2     0.09539    4.20730   11.31484   15.16708
      52      444        2     0.09539   13.52015   11.31487   15.16708
      53      444        2     0.09539    8.24377    2.48410   23.95335
      54      444        2     0.09539   17.55664    2.48408   23.95335
      55      444        2     0.09539    7.08922   13.74028   21.16911
      56      444        2     0.09539   16.40207   13.74025   21.16938
      57      444        2     0.09539    2.01962    1.60254   21.08035
      58      444        2     0.09539   11.33249    1.60254   21.08035
      59      444        2     0.09539    6.06124    2.12831   24.15602
      60      444        2     0.09539   15.37410    2.12832   24.15602
      61      444        2     0.09539    7.01742    0.99181   25.14530
      62      444        2     0.09539   16.33027    0.99187   25.14530
      63      444        2     0.09539    3.63687    1.64921   23.71142
      64      444        2     0.09539   12.94976    1.64921   23.71142
      65      444        2     0.09539    1.57223    0.58533   24.56633
      66      444        2     0.09539   10.88508    0.58536   24.56633
      67      444        2     0.09539    3.29968   12.46392   27.00247
      68      444        2     0.09539   12.61250   12.46402   27.00247
      69      444        2     0.09539    5.35245   13.59202   26.21171
      70      444        2     0.09539   14.66528   13.59211   26.21199
      71      444        2     0.09539    8.93073   13.26857   24.48532
      72      444        2     0.09539   -0.53111   13.26859   24.48532
      73      444        2     0.09539    6.89441   12.15919   25.31672
      74      444        2     0.09539   16.20720   12.15924   25.31534
      75      444        2     0.09539    8.72552   11.48164    1.47728
      76      444        2     0.09539   18.03841   11.48156    1.47728
      77      444        2     0.09539    1.46211   12.55562    0.64090
      78      444        2     0.09539   10.77492   12.55573    0.64090
      79      444        2     0.09539    6.54265   10.68684    1.17342
      80      444        2     0.09539   15.85550   10.68687    1.17342
      81      444        2     0.09539    5.56276   11.87442    0.27372
      82      444        2     0.09539   14.87560   11.87442    0.27400
      83      444        2     0.09539    5.07914    8.39269   25.30815
      84      444        2     0.09539   14.39201    8.39264   25.30815
      85      444        2     0.09539    1.32113    7.79562   27.35278
      86      444        2     0.09539   10.63398    7.79559   27.35278
      87      444        2     0.09539    4.14849   10.48475    1.32632
      88      444        2     0.09539   13.46134   10.48475    1.32632
      89      444        2     0.09539    7.89137    9.74235   17.53494
      90      444        2     0.09539   17.20422    9.74233   17.53494
      91      444        2     0.09539    7.40303    6.47825   20.32333
      92      444        2     0.09539   16.71588    6.47825   20.32333
      93      444        2     0.09539    1.68926    8.86052   20.38277
      94      444        2     0.09539   11.00214    8.86050   20.38277
      95      444        2     0.09539    5.70381    9.37635   17.33752
      96      444        2     0.09539   15.01670    9.37633   17.33752
      97      444        2     0.09539    6.66565    8.24146   16.35239
      98      444        2     0.09539   15.97854    8.24142   16.35239
      99      444        2     0.09539    3.28271    8.87742   17.79373
     100      444        2     0.09539   12.59557    8.87748   17.79373
     101      444        2     0.09539    1.22273    7.81123   16.93219
     102      444        2     0.09539   10.53560    7.81131   16.93219
     103      444        2     0.09539    3.60500    5.19348   14.47890
     104      444        2     0.09539   12.91783    5.19343   14.47890
     105      444        2     0.09539    5.65362    6.32170   15.27934
     106      444        2     0.09539   14.96647    6.32164   15.27934
     107      444        2     0.09539    9.23254    5.97015   16.99855
     108      444        2     0.09539   -0.22475    5.97010   16.99882
     109      444        2     0.09539    7.19764    4.86382   16.15802
     110      444        2     0.09539   16.51051    4.86377   16.15802
     111      444        2     0.09539    9.09246    4.25140   12.34524
     112      444        2     0.09539   18.40533    4.25140   12.34524
     113      444        2     0.09539    1.82734    5.32672   13.18576
     114      444        2     0.09539   11.14020    5.32671   13.18770
     115      444        2     0.09539    6.91201    3.44104   12.64965
     116      444        2     0.09539   16.22488    3.44100   12.64965
     117      444        2     0.09539    5.93290    4.63335   13.54326
     118      444        2     0.09539   15.24577    4.63333   13.54243
     119      444        2     0.09539    5.36809    1.11278   16.15221
     120      444        2     0.09539   14.68094    1.11278   16.15221
     121      444        2     0.09539    1.62513    0.51269   14.07993
     122      444        2     0.09539   10.93796    0.51274   14.07882
     123      444        2     0.09539    4.52476    3.24067   12.48127
     124      444        2     0.09539   13.83763    3.24068   12.48127
     125      444        2     0.09539    0.48831   12.07150    3.69528
     126      444        2     0.09539    9.80118   12.07149    3.69528
     127      444        2     0.09539    1.64282    0.81537    6.47924
     128      444        2     0.09539   10.95567    0.81534    6.47814
     129      444        2     0.09539    6.71238   12.95314    6.56827
     130      444        2     0.09539   16.02525   12.95313    6.56827
     131      444        2     0.09539    2.67090   12.42725    3.49261
     132      444        2     0.09539   11.98379   12.42725    3.49261
     133      444        2     0.09539    1.71472   13.56360    2.50333
     134      444        2     0.09539   11.02759   13.56364    2.50333
     135      444        2     0.09539    5.09525   12.90639    3.93720
     136      444        2     0.09539   14.40813   12.90641    3.93748
     137      444        2     0.09539    7.15989   13.97025    3.08230
     138      444        2     0.09539   16.47275   13.97028    3.08230
     139      444        2     0.09539    5.43239    2.09147    0.64422
     140      444        2     0.09539   14.74522    2.09155    0.64615
     141      444        2     0.09539    3.37964    0.96336    1.43664
     142      444        2     0.09539   12.69248    0.96343    1.43691
     143      444        2     0.09539   18.42745    1.28691    3.16331
     144      444        2     0.09539    9.11426    1.28691    3.16303
     145      444        2     0.09539    1.83777    2.39625    2.33191
     146      444        2     0.09539   11.15058    2.39628    2.33191
     147      444        2     0.09539    0.00646    3.07410   26.17135
     148      444        2     0.09539    9.31935    3.07403   26.16969
     149      444        2     0.09539    7.26995    1.99994   27.00773
     150      444        2     0.09539   16.58276    2.00005   27.00773
     151      444        2     0.09539    2.18943    3.86864   26.47521
     152      444        2     0.09539   11.50228    3.86867   26.47521
     153      444        2     0.09539    3.16935    2.68120   27.37463
     154      444        2     0.09539   12.48220    2.68120   27.37435
     155      444        2     0.09539    3.65280    6.16304    2.34048
     156      444        2     0.09539   12.96567    6.16301    2.34048
     157      444        2     0.09539    7.41072    6.76038    0.29557
     158      444        2     0.09539   16.72358    6.76034    0.29557
     159      444        2     0.09539    4.58352    4.07100   26.32231
     160      444        2     0.09539   13.89638    4.07098   26.32231
     161      444        3    -0.04742    8.52860    5.15354    8.74010
     162      444        3    -0.04742   17.84145    5.15355    8.74010
     163      444        3    -0.11068    0.46131    5.45448    9.32100
     164      444        3    -0.11068    9.77417    5.45448    9.32100
     165      444        3     0.25087    1.20803    6.53559    8.83217
     166      444        3     0.25087   10.52088    6.53559    8.83217
     167      444        3    -0.11068    0.72393    7.27008    7.73506
     168      444        3    -0.11068   10.03678    7.27008    7.73506
     169      444        3    -0.04742    8.78674    6.97489    7.18401
     170      444        3    -0.04742   18.09960    6.97491    7.18401
     171      444        3    -0.11068    8.01312    5.92565    7.69497
     172      444        3    -0.11068   17.32597    5.92565    7.69497
     173      444        3     0.71667    7.78971    3.96503    9.21483
     174      444        3     0.71667   17.10256    3.96503    9.21483
     175      444        3     0.71667    8.27689    7.75519    6.01640
     176      444        3     0.71667   17.58974    7.75519    6.01640
     177      444        4     0.09818    2.86492    6.24125   10.54142
     178      444        4     0.09818   12.17775    6.24126   10.54142
     179      444        3    -0.04742    4.11727    6.89460   11.03993
     180      444        3    -0.04742   13.43010    6.89462   11.03993
     181      444        3    -0.11068    5.37876    6.48640   10.58455
     182      444        3    -0.11068   14.69159    6.48633   10.58483
     183      444        3    -0.11068    6.53773    7.09549   11.06067
     184      444        3    -0.11068   15.85057    7.09540   11.06067
     185      444        3    -0.04742    6.47617    8.14021   12.00156
     186      444        3    -0.04742   15.78900    8.14021   12.00156
     187      444        3    -0.11068    5.20744    8.54086   12.45721
     188      444        3    -0.11068   14.52028    8.54097   12.45694
     189      444        3    -0.11068    4.05201    7.92085   11.99133
     190      444        3    -0.11068   13.36484    7.92097   11.99133
     191      444        3    -0.04742    7.70636    8.79346   12.50035
     192      444        3    -0.04742   17.01921    8.79346   12.50007
     193      444        3    -0.11068   18.15538    8.93803   11.68111
     194      444        3    -0.11068    8.84220    8.93813   11.68111
     195      444        3    -0.11068    0.68131    9.55945   12.15501
     196      444        3    -0.11068    9.99414    9.55956   12.15446
     197      444        3    -0.04742    0.74273   10.04893   13.46833
     198      444        3    -0.04742   10.05558   10.04895   13.46833
     199      444        3    -0.11068   -0.38565    9.91893   14.28398
     200      444        3    -0.11068    8.92724    9.91884   14.28398
     201      444        3    -0.11068    7.77090    9.30751   13.80565
     202      444        3    -0.11068   17.08371    9.30760   13.80565
     203      444        4     0.09818    1.99929   10.67751   14.00306
     204      444        4     0.09818   11.31214   10.67751   14.00306
     205      444        3     0.25087    3.64734   12.28165   13.29138
     206      444        3     0.25087   12.96019   12.28167   13.29138
     207      444        3    -0.11068    4.03782   13.21767   12.32035
     208      444        3    -0.11068   13.35065   13.21768   12.32035
     209      444        3    -0.04742    5.29038   13.82898   12.41187
     210      444        3    -0.04742   14.60323   13.82901   12.41187
     211      444        3    -0.11068    6.14010   13.55380   13.49349
     212      444        3    -0.11068   15.45293   13.55384   13.49349
     213      444        3    -0.04742    5.72724   12.66291   14.48277
     214      444        3    -0.04742   15.04007   12.66297   14.48277
     215      444        3    -0.11068    4.48815   12.00896   14.37798
     216      444        3    -0.11068   13.80100   12.00899   14.37798
     217      444        3     0.71667    6.40421    0.24045   11.35734
     218      444        3     0.71667   15.71704    0.24045   11.35734
     219      444        3     0.71667    6.60974   12.40709   15.67140
     220      444        3     0.71667   15.92257   12.40714   15.67140
     221      444        3    -0.04742    0.54379    2.14420   22.56704
     222      444        3    -0.04742    9.85662    2.14421   22.56704
     223      444        3    -0.11068    8.61600    1.84286   23.15762
     224      444        3    -0.11068   17.92887    1.84285   23.15762
     225      444        3     0.25087    7.86565    0.76185   22.67487
     226      444        3     0.25087   17.17852    0.76184   22.67487
     227      444        3    -0.11068    7.69702   14.54796   21.57444
     228      444        3    -0.11068   17.00987   14.54794   21.57444
     229      444        3    -0.04742    0.27526    0.32152   21.01400
     230      444        3    -0.04742    9.58811    0.32155   21.01400
     231      444        3    -0.11068    1.05235    1.37165   21.51887
     232      444        3    -0.11068   10.36523    1.37165   21.51887
     233      444        3     0.71667    1.28229    3.33460   23.03762
     234      444        3     0.71667   10.59514    3.33460   23.03762
     235      444        3     0.71667    0.13224   14.06015   19.84362
     236      444        3     0.71667    9.44509   14.06015   19.84472
     237      444        4     0.09818    6.21870    1.06635   24.39131
     238      444        4     0.09818   15.53157    1.06636   24.39131
     239      444        3    -0.04742    4.96343    0.42020   24.89010
     240      444        3    -0.04742   14.27630    0.42024   24.88954
     241      444        3    -0.11068    3.70394    0.83672   24.43721
     242      444        3    -0.11068   13.01681    0.83673   24.43721
     243      444        3    -0.11068    2.54265    0.22852   24.90834
     244      444        3    -0.11068   11.85552    0.22855   24.90834
     245      444        3    -0.04742    1.95579   13.69806   25.84150
     246      444        3    -0.04742   11.26864   13.69812   25.84150
     247      444        3    -0.11068    3.22262   13.28997   26.29549
     248      444        3    -0.11068   12.53547   13.29004   26.29411
     249      444        3    -0.11068    4.38007   13.90985   25.83569
     250      444        3    -0.11068   13.69291   13.90993   25.83569
     251      444        3    -0.04742    0.72413   13.04374   26.33392
     252      444        3    -0.04742   10.03696   13.04379   26.33420
     253      444        3    -0.11068    8.90047   12.90826   25.51413
     254      444        3    -0.11068   -0.51266   12.90824   25.51413
     255      444        3    -0.11068    7.74780   12.28496   25.98361
     256      444        3    -0.11068   17.06062   12.28497   25.98361
     257      444        3    -0.04742    7.68608   11.78706   27.29389
     258      444        3    -0.04742   16.99893   11.78705   27.29389
     259      444        3    -0.11068    8.75077   11.87391    0.46118
     260      444        3    -0.11068   18.06365   11.87385    0.46118
     261      444        3    -0.11068    0.65925   12.52018   27.63536
     262      444        3    -0.11068    9.97208   12.52027   27.63536
     263      444        4     0.09818    6.36555   11.12169    0.17640
     264      444        4     0.09818   15.67840   11.12171    0.17640
     265      444        3     0.25087    4.78598    9.55123   27.10367
     266      444        3     0.25087   14.09882    9.55121   27.10146
     267      444        3    -0.11068    4.40029    8.61798   26.12849
     268      444        3    -0.11068   13.71316    8.61796   26.12849
     269      444        3    -0.04742    3.14670    8.00794   26.21116
     270      444        3    -0.04742   12.45956    8.00791   26.21116
     271      444        3    -0.11068    2.28874    8.28418   27.28560
     272      444        3    -0.11068   11.60161    8.28415   27.28394
     273      444        3    -0.04742    2.63108    9.13993    0.62901
     274      444        3    -0.04742   11.94393    9.13991    0.62901
     275      444        3    -0.11068    3.87242    9.79147    0.53473
     276      444        3    -0.11068   13.18527    9.79146    0.53473
     277      444        3     0.71667    2.68141    7.07606   25.15553
     278      444        3     0.71667   11.99428    7.07604   25.15497
     279      444        3     0.71667    1.73748    9.39786    1.80686
     280      444        3     0.71667   11.05034    9.39786    1.80686
     281      444        3    -0.04742    0.20342    9.40209   18.90826
     282      444        3    -0.04742    9.51629    9.40209   18.90826
     283      444        3    -0.11068    8.27073    9.10114   18.32735
     284      444        3    -0.11068   17.58359    9.10114   18.32735
     285      444        3     0.25087    7.52399    8.02005   18.81619
     286      444        3     0.25087   16.83686    8.02005   18.81619
     287      444        3    -0.11068    8.00811    7.28557   19.91329
     288      444        3    -0.11068   17.32096    7.28557   19.91329
     289      444        3    -0.04742   -0.05474    7.58076   20.46434
     290      444        3    -0.04742    9.25812    7.58076   20.46434
     291      444        3    -0.11068    0.71894    8.62995   19.95338
     292      444        3    -0.11068   10.03179    8.62995   19.95338
     293      444        3     0.71667    0.94233   10.59060   18.43352
     294      444        3     0.71667   10.25518   10.59060   18.43352
     295      444        3     0.71667    0.45513    6.80045   21.63084
     296      444        3     0.71667    9.76798    6.80045   21.63084
     297      444        4     0.09818    5.86712    8.31431   17.10693
     298      444        4     0.09818   15.17999    8.31429   17.10693
     299      444        3    -0.04742    4.61479    7.66088   16.60842
     300      444        3    -0.04742   13.92766    7.66088   16.60842
     301      444        3    -0.11068    3.35327    8.06911   17.06380
     302      444        3    -0.11068   12.66615    8.06914   17.06214
     303      444        3    -0.11068    2.19433    7.45998   16.58768
     304      444        3    -0.11068   11.50720    7.46002   16.58768
     305      444        3    -0.04742    2.25595    6.41517   15.64707
     306      444        3    -0.04742   11.56880    6.41518   15.64651
     307      444        3    -0.11068    3.52469    6.01447   15.19141
     308      444        3    -0.11068   12.83754    6.01446   15.19141
     309      444        3    -0.11068    4.68009    6.63454   15.65730
     310      444        3    -0.11068   13.99297    6.63450   15.65730
     311      444        3    -0.04742    1.02576    5.76189   15.14801
     312      444        3    -0.04742   10.33861    5.76192   15.14801
     313      444        3    -0.11068    9.20275    5.61729   15.96724
     314      444        3    -0.11068   -0.21154    5.61725   15.96724
     315      444        3    -0.11068    8.05081    4.99589   15.49362
     316      444        3    -0.11068   17.36368    4.99585   15.49362
     317      444        3    -0.04742    7.98937    4.50651   14.18002
     318      444        3    -0.04742   17.30224    4.50648   14.18002
     319      444        3    -0.11068    9.11773    4.63657   13.36437
     320      444        3    -0.11068   18.43060    4.63656   13.36437
     321      444        3    -0.11068    0.96127    5.24784   13.84270
     322      444        3    -0.11068   10.27410    5.24786   13.84270
     323      444        4     0.09818    6.73281    3.87797   13.64529
     324      444        4     0.09818   16.04569    3.87794   13.64529
     325      444        3     0.25087    5.08471    2.27387   14.35697
     326      444        3     0.25087   14.39756    2.27389   14.35697
     327      444        3    -0.11068    4.69424    1.33786   15.32772
     328      444        3    -0.11068   14.00709    1.33787   15.32772
     329      444        3    -0.04742    3.44168    0.72653   15.23648
     330      444        3    -0.04742   12.75453    0.72654   15.23648
     331      444        3    -0.11068    2.59200    1.00167   14.15486
     332      444        3    -0.11068   11.90483    1.00171   14.15486
     333      444        3    -0.04742    3.00486    1.89255   13.16558
     334      444        3    -0.04742   12.31769    1.89258   13.16558
     335      444        3    -0.11068    4.24391    2.54654   13.27037
     336      444        3    -0.11068   13.55676    2.54657   13.27037
     337      444        3     0.71667    2.32785   14.31512   16.29101
     338      444        3     0.71667   11.64070   14.31514   16.29101
     339      444        3     0.71667    2.12236    2.14840   11.97474
     340      444        3     0.71667   11.43519    2.14843   11.97723
     341      444        3    -0.04742    8.18826   12.41144    5.08159
     342      444        3    -0.04742   17.50112   12.41143    5.08159
     343      444        3    -0.11068    0.11608   12.71276    4.49101
     344      444        3    -0.11068    9.42895   12.71273    4.49101
     345      444        3     0.25087    0.86641   13.79377    4.97376
     346      444        3     0.25087   10.17928   13.79375    4.97376
     347      444        3    -0.11068    1.03504    0.00768    6.07391
     348      444        3    -0.11068   10.34789    0.00765    6.07419
     349      444        3    -0.04742    8.45676   14.23413    6.63463
     350      444        3    -0.04742   17.76963   14.23413    6.63463
     351      444        3    -0.11068    7.67967   13.18399    6.12976
     352      444        3    -0.11068   16.99252   13.18400    6.12976
     353      444        3     0.71667    7.44975   11.22106    4.61073
     354      444        3     0.71667   16.76260   11.22106    4.61073
     355      444        3     0.71667    8.59977    0.49550    7.80363
     356      444        3     0.71667   17.91264    0.49550    7.80363
     357      444        4     0.09818    2.51342   13.48918    3.25732
     358      444        4     0.09818   11.82628   13.48919    3.25704
     359      444        3    -0.04742    3.76867   14.13531    2.75660
     360      444        3    -0.04742   13.08154   14.13534    2.75853
     361      444        3    -0.11068    5.02818   13.71884    3.21142
     362      444        3    -0.11068   14.34104   13.71887    3.21004
     363      444        3    -0.11068    6.18945   14.32703    2.74028
     364      444        3    -0.11068   15.50231   14.32708    2.74028
     365      444        3    -0.04742    6.77631    0.85744    1.80713
     366      444        3    -0.04742   16.08916    0.85749    1.80713
     367      444        3    -0.11068    5.50946    1.26547    1.35286
     368      444        3    -0.11068   14.82229    1.26554    1.35314