Created on Tue Feb 06 15:28:42 2018 

        2064 atoms
        2736 bonds
        6768 angles
        4512 dihedrals
        2736 impropers

           8 atom types
          10 bond types
          20 angle types
           6 dihedral types
           1 improper types
           0.000000  32.634001 xlo xhi
           0.000000  36.130996 ylo yhi
           0.000000  36.133559 zlo zhi
          -0.269274  -0.133700  -0.118302 xy xz yz

Masses

    1    87.620000000 # Sr6+2
    2   112.411000000 # Cd3+2
    3     1.007940000 # H_
    4    12.010700000 # C_R
    5    14.006700000 # N_3
    6    15.999400000 # O_R
    7    15.999400000 # O_3_z
    8    15.999400000 # O_2

Bond Coeffs

    1      130.099667        2.431564  # Sr6+2 O_3_z
    2      111.257396        2.561738  # Sr6+2 O_R
    3       34.147254        3.399731  # Sr6+2 Cd3+2
    4      147.192711        2.045725  # Cd3+2 O_R
    5      357.440381        1.081418  # H_ C_R
    6      646.680887        1.311940  # C_R O_R
    7      391.669513        1.458000  # C_R C_R
    8      462.655054        1.379256  # C_R C_R
    9     1060.214405        1.223740  # N_3 O_3_z
   10      827.087046        1.329342  # N_3 O_2

Angle Coeffs

    1              cosine/periodic       21.918971               1               4 # O_3_z Sr6+2 O_3_z
    2              cosine/periodic        5.926601               1               4 # O_3_z Sr6+2 Cd3+2
    3              cosine/periodic       19.174392               1               4 # O_R Sr6+2 O_3_z
    4              cosine/periodic        5.409335               1               4 # Cd3+2 Sr6+2 O_R
    5              cosine/periodic       16.887862               1               4 # O_R Sr6+2 O_R
    6                      fourier        7.269183        0.343737        0.374972        0.281246 # Sr6+2 Cd3+2 O_R
    7                      fourier       30.023701        0.343737        0.374972        0.281246 # O_R Cd3+2 O_R
    8                      fourier        2.685347        0.343737        0.374972        0.281246 # Sr6+2 Cd3+2 Sr6+2
    9              cosine/periodic      217.450257              -1               3 # O_R C_R O_R
   10              cosine/periodic      137.761490              -1               3 # O_R C_R C_R
   11              cosine/periodic      101.626578              -1               3 # C_R C_R C_R
   12              cosine/periodic      117.010657              -1               3 # C_R C_R C_R
   13              cosine/periodic       76.817955              -1               3 # C_R C_R H_
   14                      fourier      420.264491        0.317506        0.313225        0.272502 # O_3_z N_3 O_3_z
   15                      fourier      339.634631        0.317506        0.313225        0.272502 # O_3_z N_3 O_2
   16              cosine/periodic       45.673393              -1               3 # Cd3+2 O_R C_R
   17              cosine/periodic       31.804078              -1               3 # Sr6+2 O_R C_R
   18              cosine/periodic       12.369494              -1               3 # Cd3+2 O_R Sr6+2
   19                      fourier       33.831976        1.898490        2.651251        0.799497 # Sr6+2 O_3_z N_3
   20                      fourier        7.270080        1.898490        2.651251        0.799497 # Sr6+2 O_3_z Sr6+2

Dihedral Coeffs

    1        2.245703              -1               2 # O_R C_R O_R Cd3+2
    2        0.555556              -1               2 # O_R C_R C_R C_R
    3        1.497136              -1               2 # O_R C_R O_R Cd3+2
    4        3.368555              -1               2 # O_R C_R O_R Cd3+2
    5        0.079057               1               2 # O_3_z N_3 O_3_z Sr6+2
    6        0.052705               1               2 # O_3_z N_3 O_3_z Sr6+2

Improper Coeffs

    1        2.000000        1.000000       -1.000000        0.000000               0 # O_R C_R O_R C_R

Pair Coeffs

    1        0.235000        3.243762 # Sr6+2 Sr6+2
    2        0.228000        2.537280 # Cd3+2 Cd3+2
    3        0.044000        2.571134 # H_ H_
    4        0.105000        3.430851 # C_R C_R
    5        0.069000        3.260689 # N_3 N_3
    6        0.060000        3.118146 # O_R O_R
    7        0.060000        3.118146 # O_3_z O_3_z
    8        0.060000        3.118146 # O_2 O_2

Atoms

       1      444        1     1.58063   10.07442   14.95952    7.35905
       2      444        1     1.56106    4.68560    3.05154   10.63636
       3      444        1     1.52947    7.33685   16.40506   12.08874
       4      444        1     1.58305    1.98927    1.61418    5.90137
       5      444        1     1.58384    8.72004   12.09346   16.39443
       6      444        1     1.52261    3.36750    5.92156    1.61170
       7      444        1     1.58201    0.62156   10.66164    3.05312
       8      444        1     1.56073    6.02000    7.33933   14.96858
       9      444        2     1.07815   -0.08250   11.41968    6.60214
      10      444        2     1.07197    5.33265    6.58547   11.42312
      11      444        2     1.00006    8.02303   15.64794   15.64177
      12      444        2     0.99630    2.66310    2.39479    2.36467
      13      444        3     0.12113    1.45799   10.31151   10.96569
      14      444        3     0.11952    1.62296   10.41351   13.45765
      15      444        3     0.10612    0.52223   12.25346   14.69635
      16      444        3     0.09448    9.97669   13.90266   10.98178
      17      444        3     0.12001    6.92264    7.73694    7.08646
      18      444        3     0.11723    7.10968    7.64743    4.59612
      19      444        3     0.10773    6.04103    5.79965    3.33968
      20      444        3     0.09385    4.59571    4.12493    7.03461
      21      444        3     0.10037    9.68873    1.94593   16.74534
      22      444        3     0.10118    9.83247    4.43896   16.65302
      23      444        3     0.09679    8.72984    5.67518   14.81239
      24      444        3     0.07830    7.34295    1.95548   13.14427
      25      444        3     0.11941    4.19236   16.13135    1.26289
      26      444        3     0.11832    4.39793   13.64290    1.37871
      27      444        3     0.10855    3.30051   12.39417    3.21529
      28      444        3     0.09267    1.79835   16.09257    4.83093
      29      444        3     0.11981    6.48949   16.76667    1.93941
      30      444        3     0.11813    6.29339   16.62899    4.42777
      31      444        3     0.10872    7.39200   14.78007    5.65525
      32      444        3     0.09362    8.87270   13.19068    1.93708
      33      444        3     0.10083    1.04687    1.20155   16.07524
      34      444        3     0.10104    0.90302    1.29285   13.58293
      35      444        3     0.09450    1.99529    3.13997   12.34577
      36      444        3     0.07824    3.37983    4.81123   16.06469
      37      444        3     0.12110    9.21940    7.07643    7.68785
      38      444        3     0.11943    9.05758    4.58416    7.59750
      39      444        3     0.10636   10.17120    3.33766    5.76863
      40      444        3     0.09336    0.71834    7.04628    4.10786
      41      444        3     0.11968    3.75118   10.92262   10.30594
      42      444        3     0.11743    3.58456   13.41517   10.37926
      43      444        3     0.10831    4.67232   14.67529   12.21255
      44      444        3     0.09498    6.08606   10.97950   13.91238
      45      444        4     0.70422    0.21270   12.09279    9.33129
      46      444        4     0.74848    9.77156   14.21639   13.63534
      47      444        4    -0.14091    0.29788   12.12039   10.82093
      48      444        4    -0.02545    0.98728   11.12018   11.52245
      49      444        4    -0.10458    1.06657   11.17580   12.91343
      50      444        4    -0.03845    0.43013   12.20062   13.61325
      51      444        4    -0.17018   10.57283   13.17723   12.92149
      52      444        4    -0.00475   10.53231   13.14154   11.52451
      53      444        4     0.70041    5.67549    5.94283    8.70179
      54      444        4     0.75189    4.42480    3.81276    4.37962
      55      444        4    -0.14008    5.77701    5.91740    7.21338
      56      444        4    -0.02702    6.46439    6.92615    6.52220
      57      444        4    -0.10845    6.55664    6.87670    5.13181
      58      444        4    -0.03574    5.93859    5.84725    4.42217
      59      444        4    -0.16947    5.20781    4.85966    5.10341
      60      444        4    -0.00932    5.15128    4.89187    6.50001
      61      444        4     0.67525    8.46504   -0.04896   14.95360
      62      444        4     0.75236    7.11445    4.60879   12.84232
      63      444        4    -0.21265    8.53835    1.79770   14.92983
      64      444        4    -0.02777    9.21752    2.50102   15.93577
      65      444        4    -0.09606    9.28514    3.89284   15.88549
      66      444        4    -0.09287    8.64733    4.59120   14.86059
      67      444        4    -0.16110    7.92161    3.89705   13.87825
      68      444        4    -0.01151    7.89250    2.49971   13.90876
      69      444        4     0.69989    2.89311   17.75246    3.01370
      70      444        4     0.75029    1.64593   13.44039    5.16461
      71      444        4    -0.14174    3.01026   16.26543    3.05797
      72      444        4    -0.02929    3.72313   15.57040    2.06966
      73      444        4    -0.10486    3.82539   14.18117    2.13320
      74      444        4    -0.03945    3.19212   13.47572    3.15621
      75      444        4    -0.16635    2.43894   14.16080    4.12409
      76      444        4    -0.00633    2.37192   15.55643    4.07850
      77      444        4     0.70223    7.76742   15.01764    0.29671
      78      444        4     0.74957    9.04748   12.84392    4.59120
      79      444        4    -0.14307    7.66336   14.96774    1.78502
      80      444        4    -0.03014    6.95843   15.95354    2.49130
      81      444        4    -0.10401    6.86161   15.87792    3.88022
      82      444        4    -0.03963    7.49650   14.84812    4.57409
      83      444        4    -0.16671    8.24704   13.88541    3.87877
      84      444        4    -0.00626    8.30491   13.94064    2.48292
      85      444        4     0.67591    2.33616    3.05459    0.00000
      86      444        4     0.75288    3.59635    5.12263   13.41401
      87      444        4    -0.21146    2.19245    3.02077   16.22328
      88      444        4    -0.02818    1.51620    2.01245   15.52027
      89      444        4    -0.09634    1.44791    2.06260   14.12840
      90      444        4    -0.08823    2.07946    3.09124   13.42971
      91      444        4    -0.16216    2.80032    4.07712   14.12394
      92      444        4    -0.01099    2.83252    4.04485   15.52099
      93      444        4     0.70270   10.47773    8.70390    5.91546
      94      444        4     0.74883    0.92107    4.39042    3.80676
      95      444        4    -0.14151   10.38853    7.21463    5.88457
      96      444        4    -0.02414    9.69385    6.51643    6.88368
      97      444        4    -0.10635    9.61622    5.12517    6.83455
      98      444        4    -0.03674   10.25816    4.42148    5.81613
      99      444        4    -0.17007    0.11715    5.11024    4.83864
     100      444        4    -0.00443    0.15808    6.50740    4.86847
     101      444        4     0.70386    4.99191    9.30849   12.11013
     102      444        4     0.75179    6.28845   13.63505   14.19930
     103      444        4    -0.14111    4.89931   10.79819   12.12425
     104      444        4    -0.02656    4.21611   11.48827   11.11185
     105      444        4    -0.10992    4.13603   12.87989   11.15141
     106      444        4    -0.03445    4.76521   13.59168   12.17256
     107      444        4    -0.17101    5.49411   12.91108   13.16187
     108      444        4    -0.00747    5.53512   11.51371   13.14194
     109      444        5     0.82362    7.53022   15.37590    9.14609
     110      444        5     0.82256    2.13719    2.62704    8.85372
     111      444        5     0.90812    4.90743   -0.03810   11.63712
     112      444        5     0.82236   10.19467   17.89846    6.31877
     113      444        5     0.82405    0.44885   11.69472    0.11512
     114      444        5     0.91753    5.92128    6.37188    0.00000
     115      444        5     0.82439    3.17304    8.86574    2.62424
     116      444        5     0.82272    8.56415    9.14801   15.38764
     117      444        6    -0.56890    0.79100   11.15586    8.69475
     118      444        6    -0.75308   10.41155   13.00804    8.74226
     119      444        6    -0.69995    9.54046   14.03482   14.89666
     120      444        6    -0.70914    9.31003   15.20108   12.99065
     121      444        7    -0.48686    7.55058   14.87272    7.99179
     122      444        7    -0.60183    8.63123   15.83842    9.65722
     123      444        7    -0.51293    6.46640   15.43529    9.82602
     124      444        6    -0.56646    6.25967    6.86738    9.34840
     125      444        6    -0.74438    4.97432    5.03657    9.28212
     126      444        6    -0.70368    4.19542    3.99905    3.11851
     127      444        6    -0.70852    3.97599    2.81772    5.01742
     128      444        7    -0.48418    2.14729    3.12291   10.01097
     129      444        7    -0.62117    3.24492    2.17205    8.34804
     130      444        7    -0.51437    1.07982    2.56869    8.16391
     131      444        6    -0.44719    8.92748   17.73470   15.87526
     132      444        6    -0.62150    7.63142   17.78419   14.05081
     133      444        6    -0.70964    6.86770    5.86608   13.03426
     134      444        6    -0.71583    6.66164    3.96793   11.85139
     135      444        7    -0.52972    4.80789   17.01418   12.13663
     136      444        7    -0.66417    6.00148    0.63656   11.18395
     137      444        8    -0.42558    3.83678   -0.03789   11.57347
     138      444        6    -0.56336    3.61528    0.32905    2.08845
     139      444        6    -0.74364    2.30849    0.27110    3.90410
     140      444        6    -0.70612    1.42568   12.17719    4.98249
     141      444        6    -0.71093    1.18170   14.08107    6.15062
     142      444        7    -0.48143   10.33337    0.98744    5.81687
     143      444        7    -0.60949    0.42802   17.40241    6.77826
     144      444        7    -0.51466    9.14258   17.20171    6.38139
     145      444        6    -0.56551    7.12893   15.90220   17.73132
     146      444        6    -0.74531    8.38964   14.05265   17.77117
     147      444        6    -0.70570    9.27290   13.02286    5.85441
     148      444        6    -0.71013    9.51399   11.86213    3.94651
     149      444        7    -0.48501    0.36498   12.14658   17.03108
     150      444        7    -0.60521   10.22320   11.23380    0.62264
     151      444        7    -0.51807    1.51158   11.62713    0.79581
     152      444        6    -0.44744    1.73975    2.13444    0.28513
     153      444        6    -0.62255    3.03505    3.95882    0.23557
     154      444        6    -0.71115    3.83292    4.94360   12.15307
     155      444        6    -0.71457    4.04776    6.11112   14.05944
     156      444        7    -0.52034    5.90334    5.86896    0.99082
     157      444        7    -0.67266    4.75142    6.77101   17.39126
     158      444        8    -0.42618    6.98181    6.43459    0.00000
     159      444        6    -0.56798    9.87659    9.34131    6.83623
     160      444        6    -0.75296    0.30820    9.29417    5.02209
     161      444        6    -0.70182    1.15687    3.13211    4.00009
     162      444        6    -0.70674    1.38016    5.02463    2.81433
     163      444        7    -0.48862    3.14840   10.02788    3.10980
     164      444        7    -0.60025    2.07852    8.35042    2.15098
     165      444        7    -0.51364    4.23550    8.18103    2.59453
     166      444        6    -0.56839    4.42361    8.66173   11.17447
     167      444        6    -0.74592    5.66999    8.73024   13.03280
     168      444        6    -0.70345    6.51505   14.89656   14.01353
     169      444        6    -0.70954    6.74901   12.99712   15.18889
     170      444        7    -0.48864    8.55003    7.98571   14.90316
     171      444        7    -0.61940    7.46416    9.65479   15.85934
     172      444        7    -0.51580    9.62085    9.84058   15.41857
     173      444        1     1.58063   10.00757   14.90037   25.42583
     174      444        1     1.56106    4.61875    2.99239   28.70314
     175      444        1     1.52947    7.27000   16.34591   30.15551
     176      444        1     1.58305    1.92242    1.55503   23.96815
     177      444        1     1.58384    8.65319   12.03431   34.46121
     178      444        1     1.52261    3.30065    5.86241   19.67848
     179      444        1     1.58201    0.55471   10.60249   21.11990
     180      444        1     1.56073    5.95315    7.28018   33.03536
     181      444        2     1.07815   -0.14935   11.36053   24.66892
     182      444        2     1.07197    5.26580    6.52632   29.48990
     183      444        2     1.00006    7.95618   15.58879   33.70855
     184      444        2     0.99630    2.59625    2.33564   20.43145
     185      444        3     0.12113    1.39114   10.25236   29.03247
     186      444        3     0.11952    1.55611   10.35436   31.52443
     187      444        3     0.10612    0.45538   12.19431   32.76313
     188      444        3     0.09448    9.90984   13.84351   29.04856
     189      444        3     0.12001    6.85579    7.67779   25.15324
     190      444        3     0.11723    7.04283    7.58828   22.66290
     191      444        3     0.10773    5.97418    5.74050   21.40646
     192      444        3     0.09385    4.52886    4.06578   25.10139
     193      444        3     0.10037    9.62188    1.88678   34.81212
     194      444        3     0.10118    9.76562    4.37981   34.71980
     195      444        3     0.09679    8.66299    5.61603   32.87917
     196      444        3     0.07830    7.27610    1.89633   31.21105
     197      444        3     0.11941    4.12551   16.07220   19.32967
     198      444        3     0.11832    4.33108   13.58375   19.44549
     199      444        3     0.10855    3.23366   12.33501   21.28207
     200      444        3     0.09267    1.73150   16.03342   22.89771
     201      444        3     0.11981    6.42264   16.70752   20.00619
     202      444        3     0.11813    6.22654   16.56984   22.49455
     203      444        3     0.10872    7.32515   14.72092   23.72202
     204      444        3     0.09362    8.80585   13.13153   20.00386
     205      444        3     0.10083    0.98002    1.14240   34.14202
     206      444        3     0.10104    0.83617    1.23369   31.64971
     207      444        3     0.09450    1.92844    3.08082   30.41255
     208      444        3     0.07824    3.31298    4.75208   34.13147
     209      444        3     0.12110    9.15255    7.01728   25.75463
     210      444        3     0.11943    8.99073    4.52501   25.66428
     211      444        3     0.10636   10.10435    3.27851   23.83541
     212      444        3     0.09336    0.65149    6.98713   22.17464
     213      444        3     0.11968    3.68433   10.86347   28.37272
     214      444        3     0.11743    3.51771   13.35602   28.44604
     215      444        3     0.10831    4.60547   14.61613   30.27933
     216      444        3     0.09498    6.01921   10.92035   31.97916
     217      444        4     0.70422    0.14585   12.03364   27.39807
     218      444        4     0.74848    9.70471   14.15724   31.70212
     219      444        4    -0.14091    0.23103   12.06124   28.88771
     220      444        4    -0.02545    0.92043   11.06103   29.58923
     221      444        4    -0.10458    0.99972   11.11665   30.98021
     222      444        4    -0.03845    0.36328   12.14147   31.68003
     223      444        4    -0.17018   10.50598   13.11808   30.98827
     224      444        4    -0.00475   10.46546   13.08239   29.59129
     225      444        4     0.70041    5.60864    5.88367   26.76857
     226      444        4     0.75189    4.35795    3.75361   22.44640
     227      444        4    -0.14008    5.71016    5.85825   25.28016
     228      444        4    -0.02702    6.39754    6.86700   24.58898
     229      444        4    -0.10845    6.48979    6.81755   23.19859
     230      444        4    -0.03574    5.87174    5.78810   22.48895
     231      444        4    -0.16947    5.14096    4.80051   23.17019
     232      444        4    -0.00932    5.08443    4.83271   24.56679
     233      444        4     0.67525    8.39819   -0.10811   33.02038
     234      444        4     0.75236    7.04760    4.54964   30.90910
     235      444        4    -0.21265    8.47150    1.73855   32.99661
     236      444        4    -0.02777    9.15067    2.44187   34.00255
     237      444        4    -0.09606    9.21829    3.83369   33.95227
     238      444        4    -0.09287    8.58048    4.53205   32.92737
     239      444        4    -0.16110    7.85476    3.83790   31.94503
     240      444        4    -0.01151    7.82565    2.44056   31.97554
     241      444        4     0.69989    2.82626   17.69330   21.08048
     242      444        4     0.75029    1.57908   13.38124   23.23139
     243      444        4    -0.14174    2.94341   16.20628   21.12474
     244      444        4    -0.02929    3.65628   15.51125   20.13644
     245      444        4    -0.10486    3.75854   14.12202   20.19998
     246      444        4    -0.03945    3.12526   13.41657   21.22299
     247      444        4    -0.16635    2.37209   14.10164   22.19087
     248      444        4    -0.00633    2.30507   15.49728   22.14528
     249      444        4     0.70223    7.70057   14.95848   18.36349
     250      444        4     0.74957    8.98063   12.78477   22.65798
     251      444        4    -0.14307    7.59651   14.90859   19.85180
     252      444        4    -0.03014    6.89158   15.89439   20.55808
     253      444        4    -0.10401    6.79476   15.81877   21.94700
     254      444        4    -0.03963    7.42965   14.78897   22.64087
     255      444        4    -0.16671    8.18019   13.82626   21.94555
     256      444        4    -0.00626    8.23806   13.88149   20.54970
     257      444        4     0.67591    2.26931    2.99544   18.06678
     258      444        4     0.75288    3.52950    5.06348   31.48079
     259      444        4    -0.21146    2.12560    2.96161   34.29006
     260      444        4    -0.02818    1.44935    1.95330   33.58705
     261      444        4    -0.09634    1.38106    2.00345   32.19518
     262      444        4    -0.08823    2.01261    3.03209   31.49649
     263      444        4    -0.16216    2.73347    4.01797   32.19072
     264      444        4    -0.01099    2.76567    3.98570   33.58777
     265      444        4     0.70270   10.41088    8.64475   23.98224
     266      444        4     0.74883    0.85422    4.33127   21.87354
     267      444        4    -0.14151   10.32168    7.15548   23.95135
     268      444        4    -0.02414    9.62700    6.45728   24.95046
     269      444        4    -0.10635    9.54937    5.06602   24.90133
     270      444        4    -0.03674   10.19131    4.36232   23.88291
     271      444        4    -0.17007    0.05030    5.05109   22.90542
     272      444        4    -0.00443    0.09123    6.44825   22.93525
     273      444        4     0.70386    4.92505    9.24934   30.17691
     274      444        4     0.75179    6.22160   13.57590   32.26608
     275      444        4    -0.14111    4.83246   10.73904   30.19103
     276      444        4    -0.02656    4.14926   11.42912   29.17863
     277      444        4    -0.10992    4.06918   12.82074   29.21819
     278      444        4    -0.03445    4.69836   13.53253   30.23934
     279      444        4    -0.17101    5.42726   12.85193   31.22865
     280      444        4    -0.00747    5.46827   11.45456   31.20872
     281      444        5     0.82362    7.46337   15.31675   27.21287
     282      444        5     0.82256    2.07034    2.56789   26.92050
     283      444        5     0.90812    4.84058   -0.09725   29.70390
     284      444        5     0.82236   10.12782   17.83931   24.38555
     285      444        5     0.82405    0.38200   11.63557   18.18190
     286      444        5     0.91753    5.85443    6.31273   18.06678
     287      444        5     0.82439    3.10619    8.80659   20.69102
     288      444        5     0.82272    8.49730    9.08886   33.45442
     289      444        6    -0.56890    0.72415   11.09671   26.76153
     290      444        6    -0.75308   10.34470   12.94889   26.80904
     291      444        6    -0.69995    9.47361   13.97567   32.96344
     292      444        6    -0.70914    9.24318   15.14193   31.05743
     293      444        7    -0.48686    7.48373   14.81357   26.05857
     294      444        7    -0.60183    8.56438   15.77926   27.72400
     295      444        7    -0.51293    6.39955   15.37614   27.89279
     296      444        6    -0.56646    6.19282    6.80823   27.41518
     297      444        6    -0.74438    4.90747    4.97742   27.34889
     298      444        6    -0.70368    4.12857    3.93990   21.18529
     299      444        6    -0.70852    3.90914    2.75857   23.08420
     300      444        7    -0.48418    2.08044    3.06375   28.07774
     301      444        7    -0.62117    3.17807    2.11290   26.41482
     302      444        7    -0.51437    1.01297    2.50954   26.23069
     303      444        6    -0.44719    8.86063   17.67555   33.94204
     304      444        6    -0.62150    7.56457   17.72504   32.11758
     305      444        6    -0.70964    6.80085    5.80693   31.10104
     306      444        6    -0.71583    6.59479    3.90878   29.91817
     307      444        7    -0.52972    4.74104   16.95503   30.20341
     308      444        7    -0.66417    5.93462    0.57741   29.25073
     309      444        8    -0.42558    3.76993   -0.09704   29.64025
     310      444        6    -0.56336    3.54843    0.26990   20.15523
     311      444        6    -0.74364    2.24164    0.21195   21.97088
     312      444        6    -0.70612    1.35883   12.11804   23.04927
     313      444        6    -0.71093    1.11485   14.02192   24.21740
     314      444        7    -0.48143   10.26652    0.92829   23.88365
     315      444        7    -0.60949    0.36117   17.34326   24.84504
     316      444        7    -0.51466    9.07573   17.14255   24.44816
     317      444        6    -0.56551    7.06208   15.84305   35.79810
     318      444        6    -0.74531    8.32279   13.99350   35.83795
     319      444        6    -0.70570    9.20605   12.96371   23.92119
     320      444        6    -0.71013    9.44714   11.80298   22.01329
     321      444        7    -0.48501    0.29813   12.08743   35.09786
     322      444        7    -0.60521   10.15635   11.17465   18.68941
     323      444        7    -0.51807    1.44473   11.56798   18.86258
     324      444        6    -0.44744    1.67290    2.07529   18.35191
     325      444        6    -0.62255    2.96820    3.89967   18.30235
     326      444        6    -0.71115    3.76607    4.88445   30.21985
     327      444        6    -0.71457    3.98091    6.05197   32.12622
     328      444        7    -0.52034    5.83649    5.80981   19.05760
     329      444        7    -0.67266    4.68457    6.71185   35.45804
     330      444        8    -0.42618    6.91496    6.37544   18.06678
     331      444        6    -0.56798    9.80974    9.28216   24.90301
     332      444        6    -0.75296    0.24135    9.23502   23.08887
     333      444        6    -0.70182    1.09002    3.07296   22.06687
     334      444        6    -0.70674    1.31331    4.96548   20.88111
     335      444        7    -0.48862    3.08155    9.96873   21.17658
     336      444        7    -0.60025    2.01167    8.29127   20.21776
     337      444        7    -0.51364    4.16865    8.12188   20.66131
     338      444        6    -0.56839    4.35676    8.60258   29.24125
     339      444        6    -0.74592    5.60314    8.67109   31.09958
     340      444        6    -0.70345    6.44820   14.83741   32.08031
     341      444        6    -0.70954    6.68216   12.93797   33.25567
     342      444        7    -0.48864    8.48318    7.92656   32.96994
     343      444        7    -0.61940    7.39731    9.59564   33.92612
     344      444        7    -0.51580    9.55400    9.78143   33.48535
     345      444        1     1.58063    9.93979   33.02502    7.35905
     346      444        1     1.56106    4.55096   21.11704   10.63636
     347      444        1     1.52947    7.20221   34.47056   12.08874
     348      444        1     1.58305    1.85463   19.67968    5.90137
     349      444        1     1.58384    8.58540   30.15895   16.39443
     350      444        1     1.52261    3.23287   23.98706    1.61170
     351      444        1     1.58201    0.48692   28.72713    3.05312
     352      444        1     1.56073    5.88536   25.40483   14.96858
     353      444        2     1.07815   -0.21714   29.48518    6.60214
     354      444        2     1.07197    5.19801   24.65096   11.42312
     355      444        2     1.00006    7.88840   33.71344   15.64177
     356      444        2     0.99630    2.52847   20.46029    2.36467