Created on Tue Feb 06 14:51:17 2018 

        2424 atoms
        2784 bonds
        4848 angles
        6720 dihedrals
        4032 impropers

           6 atom types
           8 bond types
          16 angle types
           4 dihedral types
           1 improper types
           0.000000  26.126000 xlo xhi
           0.000000  34.434032 ylo yhi
           0.000000  34.232043 zlo zhi
         -18.540041  -5.160563  -8.603918 xy xz yz

Masses

    1    65.380000000 # Zn3f2
    2    10.811000000 # B_3
    3     1.007940000 # H_
    4    12.010700000 # C_R
    5    14.006700000 # N_R
    6    15.999400000 # O_R

Bond Coeffs

    1      154.048673        1.928536  # Zn3f2 N_R
    2      148.759211        1.886642  # Zn3f2 O_R
    3      415.257895        1.528379  # B_3 N_R
    4      357.440381        1.081418  # H_ C_R
    5      663.718927        1.345073  # C_R N_R
    6      462.655054        1.379256  # C_R C_R
    7      391.669513        1.458000  # C_R C_R
    8      646.680887        1.311940  # C_R O_R

Angle Coeffs

    1                      fourier       47.099941        0.343737        0.374972        0.281246 # N_R Zn3f2 O_R
    2                      fourier       45.004281        0.343737        0.374972        0.281246 # O_R Zn3f2 O_R
    3                      fourier       49.333327        0.343737        0.374972        0.281246 # N_R Zn3f2 N_R
    4                      fourier      157.806422        0.343737        0.374972        0.281246 # N_R B_3 N_R
    5              cosine/periodic      165.695700              -1               3 # N_R C_R C_R
    6              cosine/periodic       76.817955              -1               3 # H_ C_R C_R
    7              cosine/periodic      109.704024              -1               3 # N_R C_R H_
    8              cosine/periodic      234.844275              -1               3 # N_R C_R N_R
    9              cosine/periodic      137.761490              -1               3 # C_R C_R O_R
   10              cosine/periodic      217.450257              -1               3 # O_R C_R O_R
   11              cosine/periodic      117.010657              -1               3 # C_R C_R C_R
   12              cosine/periodic      101.626578              -1               3 # C_R C_R C_R
   13              cosine/periodic      132.654363              -1               3 # C_R N_R C_R
   14              cosine/periodic       33.704159              -1               3 # Zn3f2 N_R C_R
   15              cosine/periodic       87.466948              -1               3 # C_R N_R B_3
   16              cosine/periodic       46.721183              -1               3 # Zn3f2 O_R C_R

Dihedral Coeffs

    1        0.416667              -1               2 # N_R B_3 N_R C_R
    2        1.497136              -1               2 # C_R C_R N_R C_R
    3        0.555556              -1               2 # O_R C_R C_R C_R
    4        2.245703              -1               2 # C_R C_R O_R Zn3f2

Improper Coeffs

    1        2.000000        1.000000       -1.000000        0.000000               0 # N_R C_R H_ C_R

Pair Coeffs

    1        0.124000        2.461553 # Zn3f2 Zn3f2
    2        0.180000        3.637539 # B_3 B_3
    3        0.044000        2.571134 # H_ H_
    4        0.105000        3.430851 # C_R C_R
    5        0.069000        3.260689 # N_R N_R
    6        0.060000        3.118146 # O_R O_R

Atoms

       1      444        1     0.89544   -2.00470   -0.30227   16.41221
       2      444        1     0.89544    2.33544    6.92288    9.25891
       3      444        1     0.89544    6.30704    7.47846    0.70415
       4      444        1     0.89544    1.96691    0.25331    7.85762
       5      444        1     0.93099    7.40013    1.91494    4.27798
       6      444        1     0.93099   -3.09781    5.26126   12.83856
       7      444        2     0.48832    6.76521   -3.83548   16.30233
       8      444        2     0.48832    9.60445    0.89584    9.36777
       9      444        2     0.48832   -2.46290   11.01164    0.81421
      10      444        2     0.48832   -5.30208    6.28039    7.74859
      11      444        3     0.09262    2.25132    7.44493   13.90591
      12      444        3     0.09262   -2.54426   -2.19037   13.89307
      13      444        3     0.09262   10.96753    2.63619    0.35755
      14      444        3     0.09262    3.10108    7.61649    1.17604
      15      444        3     0.09262    1.61677    9.86713    0.51348
      16      444        3     0.09262    3.06057    6.11508   16.42813
      17      444        3     0.09262    9.25497    0.15155    2.07669
      18      444        3     0.09262    7.26646    3.87588    1.80625
      19      444        3     0.09262    5.25107   -1.31375   16.38842
      20      444        3     0.09262    5.80077   -2.02301   14.21229
      21      444        3     0.09262   -1.97033    8.25496   12.30710
      22      444        3     0.09262   -0.80284    5.34484   15.13844
      23      444        3     0.09262   -1.05730    4.07732    4.48115
      24      444        3     0.09262    0.78811    7.04708    2.01404
      25      444        3     0.09262   -0.37752    1.20477   11.49050
      26      444        3     0.09262    0.55112    2.89593   15.31456
      27      444        3     0.09262   -2.49943   -0.47893   11.76555
      28      444        3     0.09262    3.73763    8.29069   11.78216
      29      444        3     0.09262    8.46152   -1.55881    8.19515
      30      444        3     0.09262    0.32048    3.00656    7.37752
      31      444        3     0.09262   -2.36663    3.24242    8.03358
      32      444        3     0.09262   -0.93690   -0.55620    9.24693
      33      444        3     0.09262    9.83657    1.11867    6.47619
      34      444        3     0.09262    5.61525    1.10304    6.75056
      35      444        3     0.09262    6.66708    1.03637    9.28441
      36      444        3     0.09262    7.55061    0.88846   11.45764
      37      444        3     0.09262   -5.20246    2.85273   13.36727
      38      444        3     0.09262   -2.08811    3.20256   10.53406
      39      444        3     0.09262    1.50795    8.31750    4.07070
      40      444        3     0.09262   -0.26509    5.30412    6.53764
      41      444        3     0.09262    1.77060    4.77712   14.18114
      42      444        3     0.09262    0.71188    3.16428   10.35725
      43      444        3     0.09262    2.05112   -0.26887    3.21062
      44      444        3     0.09262    6.84670    9.36642    3.22346
      45      444        3     0.09262   -6.66529    4.54013   16.75881
      46      444        3     0.09262    1.20129   -0.44020   15.94015
      47      444        3     0.09262    2.68588   -2.69037   16.60083
      48      444        3     0.09262    1.24176    1.06111    0.68824
      49      444        3     0.09262   -4.95262    7.02467   15.03985
      50      444        3     0.09262   -2.96420    3.30033   15.31011
      51      444        3     0.09262   -0.94879    8.48990    0.72794
      52      444        3     0.09262   -1.49826    9.19913    2.90408
      53      444        3     0.09262    6.27297   -1.07924    4.80926
      54      444        3     0.09262    5.10506    1.83131    1.97827
      55      444        3     0.09262    5.35936    3.09904   12.63539
      56      444        3     0.09262    3.51447    0.12901   15.10232
      57      444        3     0.09262    4.67994    5.97143    5.62587
      58      444        3     0.09262    3.75116    4.28024    1.80197
      59      444        3     0.09262    6.80175    7.65540    5.35013
      60      444        3     0.09262    0.56453   -1.11441    5.33438
      61      444        3     0.09262   -4.15902    8.73500    8.92121
      62      444        3     0.09262    3.98193    4.16966    9.73902
      63      444        3     0.09262    6.66900    3.93379    9.08296
      64      444        3     0.09262    5.23943    7.73272    7.86824
      65      444        3     0.09262   -5.53418    6.05761   10.64017
      66      444        3     0.09262   -1.31288    6.07315   10.36580
      67      444        3     0.09262   -2.36451    6.14014    7.83058
      68      444        3     0.09262   -3.24833    6.28784    5.65873
      69      444        3     0.09262    9.50488    4.32356    3.74909
      70      444        3     0.09262    6.39049    3.97360    6.58248
      71      444        3     0.09262    2.79484   -1.14151   13.04566
      72      444        3     0.09262    4.56735    1.87212   10.57890
      73      444        3     0.09262    2.53169    2.39909    2.93540
      74      444        3     0.09262    3.59055    4.01192    6.75929
      75      444        4    -0.01097    8.71498   -3.28076   14.63745
      76      444        4    -0.01097    9.75039   -2.38504   14.63078
      77      444        4     0.23364    8.64934   -2.06607   16.49642
      78      444        4    -0.01097    3.40560    8.53674    0.69097
      79      444        4    -0.01097    2.66616    9.64430    0.36663
      80      444        4     0.23364    2.17714    5.65129   16.85055
      81      444        4     0.23364    8.78835    1.04164    1.67378
      82      444        4    -0.01097    7.76774    2.96371    1.49594
      83      444        4    -0.01097    8.02808    2.51824    0.22679
      84      444        4    -0.01097    5.45867   -3.04734   14.13852
      85      444        4    -0.01097   -1.49120    7.82403   13.18105
      86      444        4     0.23364   -0.91554    6.29341   14.63232
      87      444        4     0.65621   -0.55152    4.69471    1.90844
      88      444        4    -0.06952   -0.51803    5.02106    4.40464
      89      444        4    -0.10767   -0.20453    5.50809    3.12881
      90      444        4    -0.06952    0.51854    6.70513    3.01242
      91      444        4     0.65621   -0.85417    0.88652   14.12551
      92      444        4    -0.10767   -0.04555    1.97086   13.46620
      93      444        4    -0.06952    0.05646    2.01806   12.06988
      94      444        4    -0.06952    0.59159    2.96221   14.22855
      95      444        4    -0.01097   10.03383   -1.08428   11.03470
      96      444        4    -0.01097    9.73003   -2.41918   11.04274
      97      444        4     0.23364    8.93491   -1.60034    9.17419
      98      444        4    -0.01097   -0.34492    2.30186    7.86293
      99      444        4    -0.01097   -1.67147    2.42565    8.18454
     100      444        4     0.23364   -0.94895    0.44062    8.82245
     101      444        4     0.23364    8.83201    1.10876    6.88013
     102      444        4    -0.01097    6.65621    1.09578    7.06002
     103      444        4    -0.01097    7.17311    1.08260    8.32883
     104      444        4    -0.01097    8.29229    1.67327   11.53243
     105      444        4    -0.01097   -4.59718    2.63590   12.49196
     106      444        4     0.23364   -2.97719    2.85348   11.04001
     107      444        4     0.65621    1.19669    7.58458    6.64085
     108      444        4    -0.06952    0.92227    7.40189    4.14687
     109      444        4    -0.10767    0.63764    6.89746    5.42270
     110      444        4    -0.06952   -0.08782    5.70197    5.53892
     111      444        4     0.65621    1.82720    5.34817   11.54476
     112      444        4    -0.10767    1.24939    4.12477   12.20543
     113      444        4    -0.06952    1.25578    4.01245   13.60176
     114      444        4    -0.06952    0.67244    3.09729   11.44292
     115      444        4    -0.01097   -4.41257   10.45686    2.47908
     116      444        4    -0.01097   -5.44790    9.56125    2.48525
     117      444        4     0.23364   -4.34705    9.24225    0.62011
     118      444        4    -0.01097    0.89673   -1.36055   16.42556
     119      444        4    -0.01097    1.63615   -2.46811   16.74991
     120      444        4     0.23364    2.12518    1.52488    0.26598
     121      444        4     0.23364   -4.48602    6.13461   15.44259
     122      444        4    -0.01097   -3.46544    4.21254   15.62025
     123      444        4    -0.01097   -3.72579    4.65794   16.88958
     124      444        4    -0.01097   -1.15599   10.22382    2.97648
     125      444        4    -0.01097    5.79368   -0.64790    3.93532
     126      444        4     0.23364    5.21783    0.88276    2.48422
     127      444        4     0.65621    4.85388    2.48193   15.20673
     128      444        4    -0.06952    4.82017    2.15532   12.71173
     129      444        4    -0.10767    4.50694    1.66814   13.98756
     130      444        4    -0.06952    3.78392    0.47112   14.10377
     131      444        4     0.65621    5.15675    6.28978    2.99017
     132      444        4    -0.10767    4.34782    5.20541    3.65016
     133      444        4    -0.06952    4.24599    5.15807    5.04666
     134      444        4    -0.06952    3.71082    4.21402    2.88764
     135      444        4    -0.01097   -5.73160    8.26052    6.08184
     136      444        4    -0.01097   -5.42779    9.59543    6.07379
     137      444        4     0.23364   -4.63250    8.77657    7.94218
     138      444        4    -0.01097    4.64730    4.87434    9.25361
     139      444        4    -0.01097    5.97397    4.75079    8.93114
     140      444        4     0.23364    5.25129    6.73557    8.29408
     141      444        4     0.23364   -4.52967    6.06747   10.23641
     142      444        4    -0.01097   -2.35385    6.08044   10.05635
     143      444        4    -0.01097   -2.87074    6.09358    8.78754
     144      444        4    -0.01097   -3.99001    5.50297    5.58410
     145      444        4    -0.01097    8.89950    4.54037    4.62441
     146      444        4     0.23364    7.27957    4.32274    6.07636
     147      444        4     0.65621    3.10588   -0.40847   10.47552
     148      444        4    -0.06952    3.38054   -0.22568   12.96881
     149      444        4    -0.10767    3.66481    0.27875   11.69367
     150      444        4    -0.06952    4.39029    1.47423   11.57745
     151      444        4     0.65621    2.47531    1.82836    5.57058
     152      444        4    -0.10767    3.05312    3.05133    4.91110
     153      444        4    -0.06952    3.04647    3.16379    3.51478
     154      444        4    -0.06952    3.62986    4.07894    5.67362
     155      444        5    -0.41298   -3.36671   -1.63070   15.79312
     156      444        5    -0.22128    8.01361   -3.07127   15.82787
     157      444        5    -0.41298    4.71429    8.74120    0.28909
     158      444        5    -0.22128    0.95172    6.24856   16.87024
     159      444        5    -0.41298    8.24984    2.02511    2.40377
     160      444        5    -0.22128    8.67084    1.28886    0.33838
     161      444        5    -0.22128   -0.36156    7.45575   15.06758
     162      444        5    -0.41298   -1.60344    6.47411   13.49872
     163      444        5    -0.41298    2.86102    8.75067    9.87971
     164      444        5    -0.22128    9.52192   -0.56565    9.84240
     165      444        5    -0.41298    0.09751    1.05457    8.26807
     166      444        5    -0.22128   -2.05745    1.23394    8.79918
     167      444        5    -0.41298    7.71010    1.11364    6.15116
     168      444        5    -0.22128    8.56009    1.09980    8.21586
     169      444        5    -0.22128   -3.74138    1.81796   10.60286
     170      444        5    -0.41298   -3.45992    3.37214   12.17531
     171      444        5    -0.41298    7.66904    8.80685    1.32341
     172      444        5    -0.22128   -3.71128   10.24742    1.28867
     173      444        5    -0.41298   -0.41198   -1.56503   16.82745
     174      444        5    -0.22128    3.35060    0.92761    0.24630
     175      444        5    -0.41298   -3.94752    5.15113   14.71259
     176      444        5    -0.22128   -4.36853    5.88735   16.77798
     177      444        5    -0.22128    4.66395   -0.27958    2.04879
     178      444        5    -0.41298    5.90598    0.70233    3.61662
     179      444        5    -0.41298    1.44132   -1.57448    7.23683
     180      444        5    -0.22128   -5.21958    7.74185    7.27414
     181      444        5    -0.41298    4.20503    6.12193    8.84727
     182      444        5    -0.22128    6.35991    5.94241    8.31667
     183      444        5    -0.41298   -3.40772    6.06259   10.96521
     184      444        5    -0.22128   -4.25774    6.07638    8.90067
     185      444        5    -0.22128    8.04373    5.35828    6.51350
     186      444        5    -0.41298    7.76248    3.80444    4.93968
     187      444        6    -0.61183   -1.35156    3.73942    1.99932
     188      444        6    -0.61813    0.07418    5.08391    0.83732
     189      444        6    -0.61183   -1.21851   -0.12192   13.48400
     190      444        6    -0.61813   -1.13498    1.11988   15.37703
     191      444        6    -0.61183    1.66732    8.73789    6.54945
     192      444        6    -0.61813    1.14773    6.84909    7.71334
     193      444        6    -0.61183    2.53969    6.14785   12.18815
     194      444        6    -0.61813    1.49595    5.48160   10.29221
     195      444        6    -0.61183    5.65333    3.43729   15.11687
     196      444        6    -0.61813    4.22813    2.09222   16.27922
     197      444        6    -0.61183    5.52124    7.29838    3.63099
     198      444        6    -0.61813    5.43737    6.05636    1.73899
     199      444        6    -0.61183    2.63555   -1.56191   10.56692
     200      444        6    -0.61813    3.15469    0.32706    9.40303
     201      444        6    -0.61183    1.76263    1.02838    4.92839
     202      444        6    -0.61813    2.80641    1.69462    6.82433
     203      444        1     0.89544   -4.58498   -4.60422   33.52823
     204      444        1     0.89544   -0.24484    2.62092   26.37493
     205      444        1     0.89544    3.72675    3.17650   17.82017
     206      444        1     0.89544   -0.61337   -4.04865   24.97364
     207      444        1     0.93099    4.81985   -2.38702   21.39400
     208      444        1     0.93099   -5.67809    0.95930   29.95458
     209      444        2     0.48832    4.18493   -8.13744   33.41835
     210      444        2     0.48832    7.02417   -3.40612   26.48379
     211      444        2     0.48832   -5.04318    6.70969   17.93023
     212      444        2     0.48832   -7.88236    1.97843   24.86462
     213      444        3     0.09262   -0.32897    3.14297   31.02193
     214      444        3     0.09262   -5.12454   -6.49233   31.00910
     215      444        3     0.09262    8.38725   -1.66576   17.47358
     216      444        3     0.09262    0.52080    3.31453   18.29206
     217      444        3     0.09262   -0.96351    5.56517   17.62950
     218      444        3     0.09262    0.48029    1.81313   33.54415
     219      444        3     0.09262    6.67468   -4.15041   19.19271
     220      444        3     0.09262    4.68618   -0.42608   18.92228
     221      444        3     0.09262    2.67079   -5.61571   33.50444
     222      444        3     0.09262    3.22048   -6.32497   31.32831
     223      444        3     0.09262   -4.55062    3.95300   29.42313
     224      444        3     0.09262   -3.38312    1.04288   32.25446
     225      444        3     0.09262   -3.63758   -0.22464   21.59717
     226      444        3     0.09262   -1.79217    2.74512   19.13006
     227      444        3     0.09262   -2.95780   -3.09719   28.60652
     228      444        3     0.09262   -2.02916   -1.40603   32.43058
     229      444        3     0.09262   -5.07971   -4.78089   28.88157
     230      444        3     0.09262    1.15735    3.98873   28.89818
     231      444        3     0.09262    5.88124   -5.86077   25.31117
     232      444        3     0.09262   -2.25980   -1.29540   24.49354
     233      444        3     0.09262   -4.94691   -1.05954   25.14960
     234      444        3     0.09262   -3.51719   -4.85816   26.36295
     235      444        3     0.09262    7.25628   -3.18329   23.59221
     236      444        3     0.09262    3.03497   -3.19892   23.86658
     237      444        3     0.09262    4.08680   -3.26559   26.40044
     238      444        3     0.09262    4.97032   -3.41350   28.57366
     239      444        3     0.09262   -7.78274   -1.44923   30.48329
     240      444        3     0.09262   -4.66839   -1.09940   27.65008
     241      444        3     0.09262   -1.07234    4.01554   21.18672
     242      444        3     0.09262   -2.84537    1.00216   23.65366
     243      444        3     0.09262   -0.80968    0.47517   31.29716
     244      444        3     0.09262   -1.86840   -1.13768   27.47327
     245      444        3     0.09262   -0.52916   -4.57083   20.32664
     246      444        3     0.09262    4.26642    5.06446   20.33948
     247      444        3     0.09262   -9.24558    0.23817   33.87483
     248      444        3     0.09262   -1.37899   -4.74216   33.05617
     249      444        3     0.09262    0.10559   -6.99233   33.71685
     250      444        3     0.09262   -1.33852   -3.24085   17.80426
     251      444        3     0.09262   -7.53290    2.72271   32.15587
     252      444        3     0.09262   -5.54448   -1.00163   32.42613
     253      444        3     0.09262   -3.52908    4.18794   17.84397
     254      444        3     0.09262   -4.07854    4.89717   20.02010
     255      444        3     0.09262    3.69269   -5.38119   21.92528
     256      444        3     0.09262    2.52478   -2.47065   19.09429
     257      444        3     0.09262    2.77908   -1.20292   29.75141
     258      444        3     0.09262    0.93419   -4.17294   32.21834
     259      444        3     0.09262    2.09965    1.66948   22.74189
     260      444        3     0.09262    1.17088   -0.02172   18.91800
     261      444        3     0.09262    4.22147    3.35344   22.46615
     262      444        3     0.09262   -2.01575   -5.41637   22.45040
     263      444        3     0.09262   -6.73930    4.43304   26.03723
     264      444        3     0.09262    1.40165   -0.13230   26.85504
     265      444        3     0.09262    4.08872   -0.36817   26.19898
     266      444        3     0.09262    2.65915    3.43076   24.98426
     267      444        3     0.09262   -8.11447    1.75565   27.75620
     268      444        3     0.09262   -3.89316    1.77119   27.48183
     269      444        3     0.09262   -4.94479    1.83818   24.94660
     270      444        3     0.09262   -5.82861    1.98588   22.77475
     271      444        3     0.09262    6.92460    0.02160   20.86511
     272      444        3     0.09262    3.81021   -0.32836   23.69850
     273      444        3     0.09262    0.21456   -5.44347   30.16168
     274      444        3     0.09262    1.98706   -2.42983   27.69492
     275      444        3     0.09262   -0.04860   -1.90287   20.05142
     276      444        3     0.09262    1.01027   -0.29004   23.87531
     277      444        4    -0.01097    6.13470   -7.58272   31.75347
     278      444        4    -0.01097    7.17011   -6.68700   31.74680
     279      444        4     0.23364    6.06905   -6.36803   33.61244
     280      444        4    -0.01097    0.82532    4.23478   17.80700
     281      444        4    -0.01097    0.08588    5.34235   17.48265
     282      444        4     0.23364   -0.40314    1.34933   33.96657
     283      444        4     0.23364    6.20807   -3.26031   18.78980
     284      444        4    -0.01097    5.18746   -1.33825   18.61196
     285      444        4    -0.01097    5.44780   -1.78372   17.34281
     286      444        4    -0.01097    2.87839   -7.34930   31.25454
     287      444        4    -0.01097   -4.07148    3.52207   30.29707
     288      444        4     0.23364   -3.49582    1.99145   31.74834
     289      444        4     0.65621   -3.13180    0.39275   19.02446
     290      444        4    -0.06952   -3.09831    0.71910   21.52066
     291      444        4    -0.10767   -2.78482    1.20613   20.24483
     292      444        4    -0.06952   -2.06174    2.40318   20.12844
     293      444        4     0.65621   -3.43446   -3.41544   31.24153
     294      444        4    -0.10767   -2.62583   -2.33110   30.58222
     295      444        4    -0.06952   -2.52382   -2.28390   29.18590
     296      444        4    -0.06952   -1.98870   -1.33975   31.34457
     297      444        4    -0.01097    7.45355   -5.38624   28.15072
     298      444        4    -0.01097    7.14975   -6.72114   28.15877
     299      444        4     0.23364    6.35463   -5.90230   26.29021
     300      444        4    -0.01097   -2.92520   -2.00009   24.97895
     301      444        4    -0.01097   -4.25175   -1.87631   25.30056
     302      444        4     0.23364   -3.52923   -3.86134   25.93847
     303      444        4     0.23364    6.25173   -3.19320   23.99615
     304      444        4    -0.01097    4.07592   -3.20618   24.17604
     305      444        4    -0.01097    4.59283   -3.21936   25.44485
     306      444        4    -0.01097    5.71200   -2.62869   28.64845
     307      444        4    -0.01097   -7.17746   -1.66606   29.60798
     308      444        4     0.23364   -5.55747   -1.44848   28.15603
     309      444        4     0.65621   -1.38359    3.28262   23.75687
     310      444        4    -0.06952   -1.65802    3.09993   21.26289
     311      444        4    -0.10767   -1.94264    2.59550   22.53872
     312      444        4    -0.06952   -2.66811    1.40001   22.65494
     313      444        4     0.65621   -0.75308    1.04621   28.66078
     314      444        4    -0.10767   -1.33089   -0.17719   29.32146
     315      444        4    -0.06952   -1.32450   -0.28951   30.71778
     316      444        4    -0.06952   -1.90784   -1.20467   28.55894
     317      444        4    -0.01097   -6.99286    6.15490   19.59511
     318      444        4    -0.01097   -8.02818    5.25929   19.60127
     319      444        4     0.23364   -6.92733    4.94030   17.73613
     320      444        4    -0.01097   -1.68356   -5.66251   33.54158
     321      444        4    -0.01097   -0.94414   -6.77007   33.86593
     322      444        4     0.23364   -0.45510   -2.77708   17.38200
     323      444        4     0.23364   -7.06630    1.83265   32.55861
     324      444        4    -0.01097   -6.04572   -0.08942   32.73627
     325      444        4    -0.01097   -6.30607    0.35598   34.00560
     326      444        4    -0.01097   -3.73627    5.92186   20.09250
     327      444        4    -0.01097    3.21340   -4.94986   21.05134
     328      444        4     0.23364    2.63755   -3.41920   19.60024
     329      444        4     0.65621    2.27360   -1.82002   32.32275
     330      444        4    -0.06952    2.23989   -2.14664   29.82775
     331      444        4    -0.10767    1.92666   -2.63381   31.10358
     332      444        4    -0.06952    1.20364   -3.83084   31.21979
     333      444        4     0.65621    2.57647    1.98782   20.10619
     334      444        4    -0.10767    1.76753    0.90345   20.76618
     335      444        4    -0.06952    1.66570    0.85611   22.16268
     336      444        4    -0.06952    1.13054   -0.08794   20.00367
     337      444        4    -0.01097   -8.31188    3.95856   23.19786
     338      444        4    -0.01097   -8.00808    5.29347   23.18981
     339      444        4     0.23364   -7.21278    4.47461   25.05820
     340      444        4    -0.01097    2.06702    0.57239   26.36963
     341      444        4    -0.01097    3.39369    0.44883   26.04716
     342      444        4     0.23364    2.67101    2.43361   25.41010
     343      444        4     0.23364   -7.10995    1.76551   27.35243
     344      444        4    -0.01097   -4.93413    1.77848   27.17237
     345      444        4    -0.01097   -5.45103    1.79162   25.90356
     346      444        4    -0.01097   -6.57029    1.20101   22.70012
     347      444        4    -0.01097    6.31922    0.23842   21.74043
     348      444        4     0.23364    4.69928    0.02078   23.19238
     349      444        4     0.65621    0.52560   -4.71043   27.59154
     350      444        4    -0.06952    0.80026   -4.52764   30.08483
     351      444        4    -0.10767    1.08453   -4.02321   28.80969
     352      444        4    -0.06952    1.81001   -2.82773   28.69347
     353      444        4     0.65621   -0.10497   -2.47360   22.68660
     354      444        4    -0.10767    0.47284   -1.25063   22.02712
     355      444        4    -0.06952    0.46619   -1.13817   20.63080
     356      444        4    -0.06952    1.04958   -0.22302   22.78964
     357      444        5    -0.41298   -5.94699   -5.93266   32.90915
     358      444        5    -0.22128    5.43333   -7.37323   32.94389
     359      444        5    -0.41298    2.13401    4.43924   17.40511
     360      444        5    -0.22128   -1.62856    1.94660   33.98626
     361      444        5    -0.41298    5.66956   -2.27685   19.51980
     362      444        5    -0.22128    6.09056   -3.01310   17.45441
     363      444        5    -0.22128   -2.94184    3.15379   32.18360
     364      444        5    -0.41298   -4.18372    2.17215   30.61474
     365      444        5    -0.41298    0.28073    4.44871   26.99573
     366      444        5    -0.22128    6.94164   -4.86761   26.95842
     367      444        5    -0.41298   -2.48277   -3.24739   25.38409
     368      444        5    -0.22128   -4.63773   -3.06801   25.91520
     369      444        5    -0.41298    5.12982   -3.18832   23.26718