Created on Tue Feb 06 14:57:07 2018 

        1696 atoms
        2048 bonds
        3648 angles
        3840 dihedrals
        2304 impropers

           5 atom types
           5 bond types
           8 angle types
           3 dihedral types
           1 improper types
           0.000000  36.928000 xlo xhi
           0.000000  31.976067 ylo yhi
           0.000000  30.138516 zlo zhi
          18.439818  18.439494  10.670303 xy xz yz

Masses

    1    65.380000000 # Zn3f2
    2     1.007940000 # H_
    3    12.010700000 # C_R
    4    15.999400000 # O_2
    5    15.999400000 # O_3_f

Bond Coeffs

    1      122.127512        2.014866  # Zn3f2 O_2
    2      357.440381        1.081418  # H_ C_R
    3      462.655054        1.379256  # C_R C_R
    4      714.557442        1.269010  # C_R O_2
    5      391.669513        1.458000  # C_R C_R

Angle Coeffs

    1                      fourier       32.394397        0.343737        0.374972        0.281246 # O_2 Zn3f2 O_3_f
    2              cosine/periodic       76.817955              -1               3 # H_ C_R C_R
    3              cosine/periodic      117.010657              -1               3 # C_R C_R C_R
    4              cosine/periodic      148.862838              -1               3 # O_2 C_R C_R
    5              cosine/periodic      256.805977              -1               3 # O_2 C_R O_2
    6              cosine/periodic      101.626578              -1               3 # C_R C_R C_R
    7              cosine/periodic       33.013732              -1               3 # C_R O_2 Zn3f2
    8                      fourier       10.476826        0.343737        0.374972        0.281246 # Zn3f2 O_3_f Zn3f2

Dihedral Coeffs

    1        1.497136              -1               2 # C_R C_R C_R H_
    2        2.245703              -1               2 # C_R C_R O_2 Zn3f2
    3        0.555556              -1               2 # O_2 C_R C_R C_R

Improper Coeffs

    1        2.000000        1.000000       -1.000000        0.000000               0 # H_ C_R C_R C_R

Pair Coeffs

    1        0.124000        2.461553 # Zn3f2 Zn3f2
    2        0.044000        2.571134 # H_ H_
    3        0.105000        3.430851 # C_R C_R
    4        0.060000        3.118146 # O_2 O_2
    5        0.060000        3.118146 # O_3_f O_3_f

Atoms

       1      444        1     1.11601   24.16985   15.81853    9.21515
       2      444        1     1.11601    5.72025    1.44830    2.99200
       3      444        1     1.11601   24.16973   13.96688   11.83494
       4      444        1     1.11601    5.72005    3.30390    0.36633
       5      444        1     1.11601   25.77452   13.03998    9.21545
       6      444        1     1.11601    4.11356    4.23349    2.99200
       7      444        1     1.11601   22.56092   13.03411    9.21123
       8      444        1     1.11601    7.32833    4.23499    2.99306
       9      444        1     1.11601   11.12757    8.28298    5.85290
      10      444        1     1.11601   32.78916   17.08986   12.07741
      11      444        1     1.11601   12.73299    7.35644    3.23447
      12      444        1     1.11601   31.18277   18.01949   14.70323
      13      444        1     1.11601   12.73297    5.50486    5.85441
      14      444        1     1.11601   31.18259   19.87509   12.07756
      15      444        1     1.11601   14.34190    8.28928    5.85832
      16      444        1     1.11601   29.57453   17.08840   12.07650
      17      444        2     0.10528   14.99117   13.74473    1.04596
      18      444        2     0.10528   24.20895   17.03677   14.67294
      19      444        2     0.10528   12.30322   10.20682   12.60574
      20      444        2     0.10528   28.99566   11.22376   11.16180
      21      444        2     0.10528   19.40605    3.02934    5.42252
      22      444        2     0.10528   26.85346   17.99678    6.86209
      23      444        2     0.10528   19.40636    6.12360    1.04581
      24      444        2     0.10528   26.85405   12.47596   14.67369
      25      444        2     0.10528   14.99009    5.57207   12.60574
      26      444        2     0.10528   24.20779   19.51813   11.16135
      27      444        2     0.10528   12.30406   15.29157    5.41438
      28      444        2     0.10528   28.99656   14.26918    6.85455
      29      444        2     0.10528   10.52321    3.01803    5.38696
      30      444        2     0.10528   21.51153   17.99279    6.82668
      31      444        2     0.10528   17.60000   15.28139    5.37656
      32      444        2     0.10528   19.37795   14.26033    6.82366
      33      444        2     0.10528   10.52285    6.08531    1.04716
      34      444        2     0.10528   21.51141   12.43992   14.68138
      35      444        2     0.10528   17.59981   10.16880   12.60845
      36      444        2     0.10528   19.37793   11.19261   11.16346
      37      444        2     0.10528    7.87013    7.61659    5.38349
      38      444        2     0.10528   26.33607    9.65464    6.82366
      39      444        2     0.10528   22.03644    7.61072    5.37822
      40      444        2     0.10528   22.03683    9.66027    6.82637
      41      444        2     0.10528   17.49608   15.19957   14.02315
      42      444        2     0.10528   10.04876    8.84745    0.39587
      43      444        2     0.10528   21.91270   15.75132    2.46382
      44      444        2     0.10528   12.69456    1.80499    3.90746
      45      444        2     0.10528   24.59858    6.03172    9.65487
      46      444        2     0.10528    7.90626    7.05420    8.21501
      47      444        2     0.10528   21.91163    7.57865   14.02360
      48      444        2     0.10528   12.69389    4.28661    0.39662
      49      444        2     0.10528   24.59959   11.11657    2.46382
      50      444        2     0.10528    7.90715   10.09964    3.90776
      51      444        2     0.10528   17.49676   18.29405    9.64704
      52      444        2     0.10528   10.04936    3.32661    8.20747
      53      444        2     0.10528   29.03265   13.70677    9.68607
      54      444        2     0.10528   10.56674   11.66877    8.24590
      55      444        2     0.10528   14.86637   13.71263    9.69134
      56      444        2     0.10528   14.86600   11.66314    8.24319
      57      444        2     0.10528   26.37996   15.23806   14.02240
      58      444        2     0.10528   15.39139    8.88351    0.38818
      59      444        2     0.10528   19.30303   11.15455    2.46111
      60      444        2     0.10528   17.52487   10.13079    3.90610
      61      444        2     0.10528   26.37960   18.30536    9.68260
      62      444        2     0.10528   15.39130    3.33060    8.24288
      63      444        2     0.10528   19.30275    6.04200    9.69300
      64      444        2     0.10528   17.52484    7.06306    8.24590
      65      444        3    -0.05233   24.21047   19.16469   15.03008
      66      444        3    -0.05233   24.20873   18.02908   14.22779
      67      444        3    -0.05233   29.90578   10.70577   13.04696
      68      444        3    -0.05233   28.92140   11.27096   12.24588
      69      444        3    -0.05233   28.69728   17.97914    5.74169
      70      444        3    -0.05233   27.71192   17.41115    6.54141
      71      444        3    -0.05233   28.69763   11.41330   15.03053
      72      444        3    -0.05233   27.71219   11.97787   14.22839
      73      444        3    -0.05233   24.20983   20.56540   13.04787
      74      444        3    -0.05233   24.20817   19.43000   12.24543
      75      444        3    -0.05233   29.90702   15.87489    5.73732
      76      444        3    -0.05233   28.92190   15.30673    6.53719
      77      444        3     0.72085    8.28814    1.82756    4.43277
      78      444        3    -0.13214   18.56633   17.20378    5.29624
      79      444        3    -0.05233   19.66771   17.96924    5.70356
      80      444        3    -0.05233   20.65344   17.40422    6.50600
      81      444        3    -0.05233   18.46087   15.86379    5.70055
      82      444        3    -0.05233   19.44601   15.29825    6.50238
      83      444        3    -0.13214   20.54960   16.06465    6.91106
      84      444        3     0.72085   21.60785   15.45397    7.77378
      85      444        3     0.72085    8.28786    4.78902    0.24307
      86      444        3    -0.13214   18.56610   10.73417   14.44765
      87      444        3    -0.05233   19.66752   11.37334   15.03354
      88      444        3    -0.05233   20.65329   11.94139   14.23337
      89      444        3    -0.05233   18.46070   10.66847   13.04953
      90      444        3    -0.05233   19.44589   11.23579   12.24905
      91      444        3    -0.13214   20.54946   11.87673   12.83539
      92      444        3     0.72085   21.60763   12.48639   11.97192
      93      444        3     0.72085    5.72378    6.27032    4.43157
      94      444        3    -0.13214   24.18463    7.49264    5.29519
      95      444        3    -0.05233   25.39712    8.06702    5.70145
      96      444        3    -0.05233   25.39820    9.20289    6.50419
      97      444        3    -0.05233   22.97032    8.06772    5.70130
      98      444        3    -0.05233   22.97068    9.20315    6.50374
      99      444        3    -0.13214   24.18499    9.77906    6.91106
     100      444        3     0.72085   24.18281   11.00050    7.77423
     101      444        3     0.72085    5.74938    0.33968    0.24005
     102      444        3    -0.13214   24.20711   20.44081   14.44584
     103      444        3    -0.13214   24.20613   18.15359   12.82967
     104      444        3     0.72085   24.19497   16.93326   11.96725
     105      444        3     0.72085    3.16622    4.80881    0.24005
     106      444        3    -0.13214   29.79949   10.76989   14.44599
     107      444        3    -0.13214   27.81628   11.90948   12.83027
     108      444        3     0.72085   26.75291   12.50809   11.96800
     109      444        3     0.72085    3.16637    1.83126    4.45266
     110      444        3    -0.13214   29.79958   17.21383    5.33060
     111      444        3    -0.13214   27.81636   16.07035    6.94361
     112      444        3     0.72085   26.75287   15.45696    7.79533
     113      444        3    -0.05233    8.20518    9.91009    0.03903
     114      444        3    -0.05233    9.19042    9.34538    0.84086
     115      444        3    -0.05233   12.69300    0.75799    2.02169
     116      444        3    -0.05233   12.69462    1.89338    2.82413
     117      444        3    -0.05233    6.99578    5.44850    9.33224
     118      444        3    -0.05233    7.98091    6.01665    8.53236
     119      444        3    -0.05233   12.69236    2.15869    0.03948
     120      444        3    -0.05233   12.69352    3.29397    0.84086
     121      444        3    -0.05233    6.99629   10.61721    2.02139
     122      444        3    -0.05233    7.98139   10.05241    2.82368
     123      444        3    -0.05233    8.20554    3.34425    9.32787
     124      444        3    -0.05233    9.19089    3.91224    8.52815
     125      444        3     0.72085   31.17906   15.05310   10.63799
     126      444        3    -0.13214   12.71811   13.83071    9.77422
     127      444        3    -0.05233   11.50569   13.25638    9.36811
     128      444        3    -0.05233   11.50460   12.12045    8.56537
     129      444        3    -0.05233   13.93252   13.25569    9.36826
     130      444        3    -0.05233   13.93182   12.12003    8.56537
     131      444        3    -0.13214   12.71783   11.54432    8.15850
     132      444        3     0.72085   12.72003   10.32292    7.29533
     133      444        3     0.72085   28.61498   16.53437   14.82649
     134      444        3    -0.13214   18.33671   10.58922    0.62191
     135      444        3    -0.05233   17.23527    9.95007    0.03602
     136      444        3    -0.05233   16.24953    9.38200    0.83619
     137      444        3    -0.05233   18.44210   10.65494    2.02003
     138      444        3    -0.05233   17.45695   10.08759    2.82051
     139      444        3    -0.13214   16.35334    9.44667    2.23417
     140      444        3     0.72085   15.29462    8.83671    3.09673
     141      444        3     0.72085   28.61467   19.49584   10.63679
     142      444        3    -0.13214   18.33646    4.11961    9.77332
     143      444        3    -0.05233   17.23512    3.35415    9.36600
     144      444        3    -0.05233   16.24936    3.91916    8.56356
     145      444        3    -0.05233   18.44192    5.45960    9.36901
     146      444        3    -0.05233   17.45677    6.02514    8.56717
     147      444        3    -0.13214   16.35319    5.25874    8.15850
     148      444        3     0.72085   15.29493    5.86942    7.29578
     149      444        3     0.72085   33.73578   16.51414   14.82815
     150      444        3    -0.13214    7.10334   10.55353    0.62357
     151      444        3    -0.13214    9.08653    9.41390    2.23929
     152      444        3     0.72085   10.14992    8.81533    3.10155
     153      444        3     0.72085   31.15345   20.98371   14.82951
     154      444        3    -0.13214   12.69571    0.88257    0.62372
     155      444        3    -0.13214   12.69670    3.16980    2.23989
     156      444        3     0.72085   12.70784    4.39012    3.10231
     157      444        3     0.72085   33.73643   19.49212   10.61690
     158      444        3    -0.13214    7.10323    4.10955    9.73896
     159      444        3    -0.13214    9.08646    5.25304    8.12595
     160      444        3     0.72085   10.14977    5.86632    7.27393
     161      444        4    -0.61325   24.18911   17.11599   10.70204
     162      444        4    -0.61325   14.96046   16.14136    1.50361
     163      444        4    -0.61325   25.76988   13.06921   12.56234
     164      444        4    -0.61325   13.35782    9.56960   14.71197
     165      444        4    -0.61325   26.90796   14.23170    8.12534
     166      444        4    -0.61325   21.46530    3.05181    4.11421
     167      444        4    -0.61325   26.90748   12.40959   10.70279
     168      444        4    -0.61325   21.46558    4.89746    1.50361
     169      444        4    -0.61325   24.18874   15.80156   12.56188
     170      444        4    -0.61325   14.95793    6.80230   14.70760
     171      444        4    -0.61325   25.76977   16.20436    8.12595
     172      444        4    -0.61325   13.35833   17.06463    4.11104
     173      444        4    -0.61325   22.58535   16.20574    8.10832
     174      444        4    -0.61325   21.44801   14.23039    8.10515
     175      444        4    -0.61325    8.45172    3.04945    4.10004
     176      444        4    -0.61325   16.53051   17.06425    4.10125
     177      444        4    -0.61325   22.58535   13.05220   12.56912
     178      444        4    -0.61325   21.44788   12.39060   10.70791
     179      444        4    -0.61325    8.45143    4.88294    1.50587
     180      444        4    -0.61325   16.53028    9.56113   14.71483
     181      444        4    -0.61325   25.32172   11.47357    8.10817
     182      444        4    -0.61325   23.04248   11.47134    8.10666
     183      444        4    -0.61325    6.86420    5.80123    4.10004
     184      444        4    -0.61325   23.04842    5.79892    4.09884
     185      444        5    -1.27277   24.16577   13.96348    9.86825
     186      444        5    -1.27277    5.72140    3.30513    2.33574
     187      444        4    -0.61325    9.99532    8.91379    4.36677
     188      444        4    -0.61325   15.43686   16.42573   13.56535
     189      444        4    -0.61325   12.71407    5.52183    2.50768
     190      444        4    -0.61325   21.94211   14.51949    0.35744
     191      444        4    -0.61325   11.13306    5.11903    6.94361
     192      444        4    -0.61325   23.54441    4.25872   10.95836
     193      444        4    -0.61325   12.71370    4.20738    4.36752
     194      444        4    -0.61325   21.94202    5.18180   13.56535
     195      444        4    -0.61325   11.13291    8.25416    2.50722
     196      444        4    -0.61325   23.54500   11.75380    0.35759
     197      444        4    -0.61325    9.99488    7.09170    6.94422
     198      444        4    -0.61325   15.43748   18.27158   10.95535
     199      444        4    -0.61325   11.58109    9.84980    6.96139
     200      444        4    -0.61325   13.85975    9.85168    6.96200
     201      444        4    -0.61325   30.03862   15.52216   10.96952
     202      444        4    -0.61325   13.85436   15.52442   10.97072
     203      444        4    -0.61325   14.31748    8.27114    2.50044
     204      444        4    -0.61325   15.45495    8.93279    4.36165
     205      444        4    -0.61325   28.45145   16.44043   13.56369
     206      444        4    -0.61325   20.37255   11.76226    0.35473
     207      444        4    -0.61325   14.31752    5.11766    6.96124
     208      444        4    -0.61325   15.45483    7.09305    6.96456
     209      444        4    -0.61325   28.45117   18.27390   10.96937
     210      444        4    -0.61325   20.37222    4.25914   10.96831
     211      444        5    -1.27277   12.73696    7.35986    5.20115
     212      444        5    -1.27277   31.18141   18.01826   12.73382
     213      444        1     1.11601   33.38960   21.15368   24.28441
     214      444        1     1.11601   14.94000    6.78345   18.06126
     215      444        1     1.11601   33.38948   19.30203   26.90420
     216      444        1     1.11601   14.93980    8.63905   15.43559
     217      444        1     1.11601   34.99427   18.37513   24.28471
     218      444        1     1.11601   13.33331    9.56865   18.06126
     219      444        1     1.11601   31.78067   18.36926   24.28049
     220      444        1     1.11601   16.54807    9.57014   18.06231
     221      444        1     1.11601   20.34731   13.61813   20.92216
     222      444        1     1.11601   42.00891   22.42501   27.14667
     223      444        1     1.11601   21.95274   12.69159   18.30372
     224      444        1     1.11601   40.40252   23.35464   29.77248
     225      444        1     1.11601   21.95272   10.84001   20.92366
     226      444        1     1.11601   40.40234   25.21024   27.14682
     227      444        1     1.11601   23.56165   13.62443   20.92758
     228      444        1     1.11601   38.79428   22.42355   27.14576
     229      444        2     0.10528   24.21092   19.07989   16.11522
     230      444        2     0.10528   33.42870   22.37193   29.74219
     231      444        2     0.10528   21.52297   15.54197   27.67499
     232      444        2     0.10528   38.21541   16.55891   26.23106
     233      444        2     0.10528   28.62579    8.36449   20.49178
     234      444        2     0.10528   36.07321   23.33193   21.93135
     235      444        2     0.10528   28.62611   11.45875   16.11506
     236      444        2     0.10528   36.07380   17.81111   29.74295
     237      444        2     0.10528   24.20984   10.90722   27.67499
     238      444        2     0.10528   33.42754   24.85328   26.23061
     239      444        2     0.10528   21.52381   20.62672   20.48364
     240      444        2     0.10528   38.21631   19.60434   21.92381
     241      444        2     0.10528   19.74296    8.35318   20.45622
     242      444        2     0.10528   30.73127   23.32794   21.89593
     243      444        2     0.10528   26.81975   20.61654   20.44582
     244      444        2     0.10528   28.59769   19.59548   21.89292
     245      444        2     0.10528   19.74260   11.42046   16.11642
     246      444        2     0.10528   30.73115   17.77508   29.75063
     247      444        2     0.10528   26.81956   15.50395   27.67771
     248      444        2     0.10528   28.59767   16.52776   26.23272
     249      444        2     0.10528   17.08988   12.95174   20.45275
     250      444        2     0.10528   35.55582   14.98979   21.89292
     251      444        2     0.10528   31.25619   12.94588   20.44748
     252      444        2     0.10528   31.25658   14.99542   21.89563
     253      444        2     0.10528   26.71582   20.53472   29.09241
     254      444        2     0.10528   19.26851   14.18260   15.46513
     255      444        2     0.10528   31.13244   21.08647   17.53308
     256      444        2     0.10528   21.91430    7.14014   18.97672
     257      444        2     0.10528   33.81832   11.36687   24.72413
     258      444        2     0.10528   17.12601   12.38935   23.28426
     259      444        2     0.10528   31.13138   12.91380   29.09286
     260      444        2     0.10528   21.91364    9.62177   15.46588
     261      444        2     0.10528   33.81933   16.45172   17.53308
     262      444        2     0.10528   17.12690   15.43480   18.97702
     263      444        2     0.10528   26.71651   23.62920   24.71630
     264      444        2     0.10528   19.26911    8.66176   23.27673
     265      444        2     0.10528   38.25240   19.04192   24.75533
     266      444        2     0.10528   19.78649   17.00392   23.31516
     267      444        2     0.10528   24.08611   19.04778   24.76060
     268      444        2     0.10528   24.08575   16.99829   23.31244
     269      444        2     0.10528   35.59971   20.57321   29.09166
     270      444        2     0.10528   24.61114   14.21866   15.45744
     271      444        2     0.10528   28.52278   16.48970   17.53037
     272      444        2     0.10528   26.74462   15.46594   18.97536
     273      444        2     0.10528   35.59934   23.64051   24.75186
     274      444        2     0.10528   24.61104    8.66575   23.31214
     275      444        2     0.10528   28.52250   11.37715   24.76226
     276      444        2     0.10528   26.74459   12.39821   23.31516
     277      444        3    -0.05233   33.43022   24.49985   30.09934
     278      444        3    -0.05233   33.42848   23.36423   29.29705
     279      444        3    -0.05233   39.12553   16.04092   28.11622
     280      444        3    -0.05233   38.14115   16.60611   27.31514
     281      444        3    -0.05233   37.91703   23.31429   20.81095
     282      444        3    -0.05233   36.93167   22.74630   21.61067
     283      444        3    -0.05233   37.91737   16.74845   30.09979
     284      444        3    -0.05233   36.93193   17.31302   29.29765
     285      444        3    -0.05233   33.42957   25.90055   28.11713
     286      444        3    -0.05233   33.42792   24.76516   27.31469
     287      444        3    -0.05233   39.12677   21.21004   20.80658
     288      444        3    -0.05233   38.14165   20.64189   21.60645
     289      444        3     0.72085   17.50789    7.16271   19.50203
     290      444        3    -0.13214   27.78607   22.53893   20.36550
     291      444        3    -0.05233   28.88745   23.30439   20.77282
     292      444        3    -0.05233   29.87319   22.73938   21.57526
     293      444        3    -0.05233   27.68061   21.19894   20.76981
     294      444        3    -0.05233   28.66576   20.63340   21.57164
     295      444        3    -0.13214   29.76935   21.39980   21.98032
     296      444        3     0.72085   30.82760   20.78912   22.84304
     297      444        3     0.72085   17.50761   10.12417   15.31233
     298      444        3    -0.13214   27.78585   16.06932   29.51691
     299      444        3    -0.05233   28.88727   16.70849   30.10280
     300      444        3    -0.05233   29.87304   17.27654   29.30262
     301      444        3    -0.05233   27.68044   16.00362   28.11878
     302      444        3    -0.05233   28.66563   16.57094   27.31830
     303      444        3    -0.13214   29.76921   17.21188   27.90465
     304      444        3     0.72085   30.82738   17.82154   27.04118
     305      444        3     0.72085   14.94353   11.60547   19.50083
     306      444        3    -0.13214   33.40438   12.82779   20.36444
     307      444        3    -0.05233   34.61687   13.40217   20.77071
     308      444        3    -0.05233   34.61795   14.53804   21.57345
     309      444        3    -0.05233   32.19006   13.40287   20.77056
     310      444        3    -0.05233   32.19043   14.53830   21.57300
     311      444        3    -0.13214   33.40474   15.11421   21.98032
     312      444        3     0.72085   33.40256   16.33565   22.84349
     313      444        3     0.72085   14.96912    5.67483   15.30931
     314      444        3    -0.13214   33.42686   25.77596   29.51510
     315      444        3    -0.13214   33.42588   23.48874   27.89892
     316      444        3     0.72085   33.41471   22.26842   27.03651
     317      444        3     0.72085   12.38597   10.14396   15.30931
     318      444        3    -0.13214   39.01923   16.10504   29.51525
     319      444        3    -0.13214   37.03603   17.24464   27.89953
     320      444        3     0.72085   35.97266   17.84324   27.03726
     321      444        3     0.72085   12.38612    7.16642   19.52192
     322      444        3    -0.13214   39.01932   22.54898   20.39986
     323      444        3    -0.13214   37.03611   21.40550   22.01287
     324      444        3     0.72085   35.97262   20.79211   22.86459
     325      444        3    -0.05233   17.42493   15.24524   15.10829
     326      444        3    -0.05233   18.41016   14.68053   15.91012
     327      444        3    -0.05233   21.91274    6.09314   17.09095
     328      444        3    -0.05233   21.91437    7.22854   17.89339
     329      444        3    -0.05233   16.21553   10.78365   24.40150
     330      444        3    -0.05233   17.20065   11.35181   23.60162
     331      444        3    -0.05233   21.91210    7.49384   15.10874
     332      444        3    -0.05233   21.91326    8.62912   15.91012
     333      444        3    -0.05233   16.21604   15.95236   17.09065
     334      444        3    -0.05233   17.20114   15.38756   17.89294
     335      444        3    -0.05233   17.42529    8.67940   24.39713
     336      444        3    -0.05233   18.41063    9.24739   23.59740
     337      444        3     0.72085   40.39881   20.38825   25.70725
     338      444        3    -0.13214   21.93786   19.16586   24.84348
     339      444        3    -0.05233   20.72544   18.59154   24.43736
     340      444        3    -0.05233   20.72434   17.45560   23.63462
     341      444        3    -0.05233   23.15226   18.59084   24.43751
     342      444        3    -0.05233   23.15157   17.45519   23.63462
     343      444        3    -0.13214   21.93758   16.87948   23.22775
     344      444        3     0.72085   21.93978   15.65807   22.36459
     345      444        3     0.72085   37.83472   21.86952   29.89575
     346      444        3    -0.13214   27.55645   15.92437   15.69117
     347      444        3    -0.05233   26.45502   15.28522   15.10527
     348      444        3    -0.05233   25.46928   14.71715   15.90545
     349      444        3    -0.05233   27.66185   15.99009   17.08929
     350      444        3    -0.05233   26.67669   15.42274   17.88977
     351      444        3    -0.13214   25.57308   14.78182   17.30343
     352      444        3     0.72085   24.51437   14.17186   18.16599
     353      444        3     0.72085   37.83442   24.83099   25.70604
     354      444        3    -0.13214   27.55621    9.45476   24.84258
     355      444        3    -0.05233   26.45487    8.68930   24.43525
     356      444        3    -0.05233   25.46911    9.25432   23.63282
     357      444        3    -0.05233   27.66167   10.79475   24.43827
     358      444        3    -0.05233   26.67652   11.36029   23.63643
     359      444        3    -0.13214   25.57294   10.59389   23.22775
     360      444        3     0.72085   24.51468   11.20457   22.36504
     361      444        3     0.72085   42.95553   21.84929   29.89741
     362      444        3    -0.13214   16.32308   15.88868   15.69282
     363      444        3    -0.13214   18.30627   14.74905   17.30855
     364      444        3     0.72085   19.36966   14.15048   18.17081
     365      444        3     0.72085   40.37320   26.31886   29.89876
     366      444        3    -0.13214   21.91545    6.21772   15.69297
     367      444        3    -0.13214   21.91644    8.50495   17.30915
     368      444        3     0.72085   21.92759    9.72528   18.17157
     369      444        3     0.72085   42.95618   24.82728   25.68615
     370      444        3    -0.13214   16.32298    9.44471   24.80822
     371      444        3    -0.13214   18.30621   10.58819   23.19520
     372      444        3     0.72085   19.36952   11.20147   22.34319
     373      444        4    -0.61325   33.40886   22.45114   25.77129
     374      444        4    -0.61325   24.18021   21.47651   16.57287
     375      444        4    -0.61325   34.98963   18.40436   27.63159
     376      444        4    -0.61325   22.57756   14.90475   29.78122
     377      444        4    -0.61325   36.12770   19.56685   23.19460
     378      444        4    -0.61325   30.68505    8.38696   19.18347
     379      444        4    -0.61325   36.12722   17.74474   25.77205
     380      444        4    -0.61325   30.68533   10.23261   16.57287
     381      444        4    -0.61325   33.40849   21.13671   27.63114
     382      444        4    -0.61325   24.17767   12.13745   29.77685
     383      444        4    -0.61325   34.98951   21.53951   23.19520
     384      444        4    -0.61325   22.57807   22.39978   19.18030