Created on Tue Feb 06 15:01:01 2018 

        2368 atoms
        2688 bonds
        4672 angles
        5760 dihedrals
        3840 impropers

           5 atom types
           7 bond types
          13 angle types
           3 dihedral types
           1 improper types
           0.000000  47.444000 xlo xhi
           0.000000  27.652000 ylo yhi
           0.000000  42.783987 zlo zhi
          -0.001448   0.002240   0.033603 xy xz yz

Masses

    1   112.411000000 # Cd3+2
    2     1.007940000 # H_
    3    12.010700000 # C_R
    4    14.006700000 # N_R
    5    15.999400000 # O_R

Bond Coeffs

    1      152.700732        2.089900  # Cd3+2 N_R
    2      147.192711        2.045725  # Cd3+2 O_R
    3      357.440381        1.081418  # H_ C_R
    4      462.655054        1.379256  # C_R C_R
    5      663.718927        1.345073  # C_R N_R
    6      391.669513        1.458000  # C_R C_R
    7      646.680887        1.311940  # C_R O_R

Angle Coeffs

    1                      fourier       31.469575        0.343737        0.374972        0.281246 # N_R Cd3+2 O_R
    2                      fourier       33.010492        0.343737        0.374972        0.281246 # N_R Cd3+2 N_R
    3                      fourier       30.023701        0.343737        0.374972        0.281246 # O_R Cd3+2 O_R
    4              cosine/periodic       76.817955              -1               3 # H_ C_R C_R
    5              cosine/periodic      109.704024              -1               3 # H_ C_R N_R
    6              cosine/periodic      165.695700              -1               3 # C_R C_R N_R
    7              cosine/periodic      117.010657              -1               3 # C_R C_R C_R
    8              cosine/periodic      101.626578              -1               3 # C_R C_R C_R
    9              cosine/periodic      217.450257              -1               3 # O_R C_R O_R
   10              cosine/periodic      137.761490              -1               3 # O_R C_R C_R
   11              cosine/periodic      132.654363              -1               3 # C_R N_R C_R
   12              cosine/periodic       33.294741              -1               3 # Cd3+2 N_R C_R
   13              cosine/periodic       45.673393              -1               3 # Cd3+2 O_R C_R

Dihedral Coeffs

    1        1.497136              -1               2 # H_ C_R C_R C_R
    2        0.555556              -1               2 # C_R C_R C_R C_R
    3        2.245703              -1               2 # O_R C_R O_R Cd3+2

Improper Coeffs

    1        2.000000        1.000000       -1.000000        0.000000               0 # N_R C_R H_ C_R

Pair Coeffs

    1        0.228000        2.537280 # Cd3+2 Cd3+2
    2        0.044000        2.571134 # H_ H_
    3        0.105000        3.430851 # C_R C_R
    4        0.069000        3.260689 # N_R N_R
    5        0.060000        3.118146 # O_R O_R

Atoms

       1      444        1     0.97211   23.72215    5.42420   20.05906
       2      444        1     0.97211   11.86044    5.42436   20.05863
       3      444        1     0.97211   -0.00037    8.41858    1.33208
       4      444        1     0.97211   11.86046    8.41797    1.33229
       5      444        1     0.97211    0.00418    1.52295    9.36563
       6      444        1     0.97211   11.86642    1.52197    9.36541
       7      444        1     0.97211   23.71767   12.31929   12.02594
       8      444        1     0.97211   11.85515   12.31991   12.02594
       9      444        2     0.10547    2.46145    7.40324   19.25921
      10      444        2     0.10547   14.32285    7.41860   19.25322
      11      444        2     0.10547    4.93465    7.48888   19.20637
      12      444        2     0.10547   16.79546    7.50327   19.19782
      13      444        2     0.10547    4.93319    3.56029   21.03817
      14      444        2     0.10547   16.79436    3.57108   21.02213
      15      444        2     0.10547    2.45718    3.66694   21.02512
      16      444        2     0.10547   14.31837    3.67806   21.01057
      17      444        2     0.10547    2.45999    6.49421    2.24701
      18      444        2     0.10547   14.32198    6.49240    2.25365
      19      444        2     0.10547    4.93316    6.42213    2.32937
      20      444        2     0.10547   16.79480    6.41932    2.33280
      21      444        2     0.10547    4.93802   10.20667    0.21606
      22      444        2     0.10547   16.79871   10.19997    0.21242
      23      444        2     0.10547    2.46081   10.11576    0.25542
      24      444        2     0.10547   14.32145   10.10697    0.24815
      25      444        2     0.10547    9.40628   13.35343    8.55701
      26      444        2     0.10547   21.26851   13.36646    8.54567
      27      444        2     0.10547    6.93341   13.26382    8.50396
      28      444        2     0.10547   18.79502   13.27729    8.48898
      29      444        2     0.10547    6.92975    3.36945   10.32955
      30      444        2     0.10547   18.78973    3.36445   10.35394
      31      444        2     0.10547    9.40451    3.26790   10.31543
      32      444        2     0.10547   21.26503    3.26319   10.34025
      33      444        2     0.10547    9.40047    0.44456   12.90322
      34      444        2     0.10547   21.26183    0.44660   12.90793
      35      444        2     0.10547    6.92688    0.52564   12.97874
      36      444        2     0.10547   18.78886    0.52791   12.98515
      37      444        2     0.10547    6.91650   10.51729   10.95634
      38      444        2     0.10547   18.77743   10.52239   10.95698
      39      444        2     0.10547    9.39251   10.61290   10.97965
      40      444        2     0.10547   21.25301   10.61475   10.98522
      41      444        2     0.10547    9.40066    6.41981    2.09556
      42      444        2     0.10547   21.26306    6.42363    2.10946
      43      444        2     0.10547    6.92627    6.32800    2.14070
      44      444        2     0.10547   18.78924    6.33125    2.15695
      45      444        2     0.10547    6.92448   10.30403    0.41479
      46      444        2     0.10547   18.78463   10.29100    0.39383
      47      444        2     0.10547    9.40073   10.19923    0.42442
      48      444        2     0.10547   21.26109   10.18600    0.40003
      49      444        2     0.10547    9.40181    7.35110   19.16658
      50      444        2     0.10547   21.26417    7.37100   19.17322
      51      444        2     0.10547    6.92865    7.43052   19.09385
      52      444        2     0.10547   18.79154    7.45112   19.09792
      53      444        2     0.10547    6.92217    3.61405   21.14962
      54      444        2     0.10547   18.78224    3.61843   21.12245
      55      444        2     0.10547    9.39836    3.70568   21.11368
      56      444        2     0.10547   21.25853    3.71090   21.09293
      57      444        2     0.10547    2.45322    0.47531   12.84675
      58      444        2     0.10547   14.31526    0.48763   12.83584
      59      444        2     0.10547    4.92671    0.56425   12.90365
      60      444        2     0.10547   16.78811    0.57725   12.88932
      61      444        2     0.10547    4.93193   10.47785   11.03720
      62      444        2     0.10547   16.79205   10.47294   11.06094
      63      444        2     0.10547    2.45660   10.57918   11.05089
      64      444        2     0.10547   14.31732   10.57431   11.07463
      65      444        2     0.10547    2.45976   13.39579    8.48150
      66      444        2     0.10547   14.32119   13.39782    8.48792
      67      444        2     0.10547    4.93273   13.31444    8.40577
      68      444        2     0.10547   16.79480   13.31684    8.41219
      69      444        2     0.10547    4.94439    3.31907   10.43501
      70      444        2     0.10547   16.80520    3.32402   10.43673
      71      444        2     0.10547    2.46879    3.22695   10.40699
      72      444        2     0.10547   14.32918    3.22850   10.41319
      73      444        2     0.10547    0.00461    2.12809    2.19546
      74      444        2     0.10547   11.90785    2.12887    2.19632
      75      444        2     0.10547    0.00017    1.22817    4.54623
      76      444        2     0.10547   11.90610    1.22967    4.54730
      77      444        2     0.10547   23.71879    5.23048    6.07939
      78      444        2     0.10547   11.82081    5.23165    6.07747
      79      444        2     0.10547   23.71791    6.14297    3.75536
      80      444        2     0.10547   11.82494    6.14346    3.75472
      81      444        2     0.10547   23.71743   11.71425   19.19589
      82      444        2     0.10547   11.86130   11.71366   19.19504
      83      444        2     0.10547   23.71864   12.61398   16.84406
      84      444        2     0.10547   11.85636   12.61263   16.84406
      85      444        2     0.10547    0.00035    8.61155   15.31217
      86      444        2     0.10547   11.86875    8.60977   15.31217
      87      444        2     0.10547    0.00052    7.69925   17.63620
      88      444        2     0.10547   11.86313    7.69823   17.63642
      89      444        2     0.10547   23.71915    4.78634   12.89916
      90      444        2     0.10547   11.86195    4.78582   12.89916
      91      444        2     0.10547   23.72006    5.69370   15.24736
      92      444        2     0.10547   11.85680    5.69282   15.24757
      93      444        2     0.10547    0.00131    1.69680   16.79336
      94      444        2     0.10547   11.86812    1.69569   16.79271
      95      444        2     0.10547    0.00072    0.77636   14.47126
      96      444        2     0.10547   11.86224    0.77563   14.47083
      97      444        2     0.10547    0.00298    9.05551    8.49219
      98      444        2     0.10547   11.86562    9.05572    8.49177
      99      444        2     0.10547   -0.00010    8.14824    6.14399
     100      444        2     0.10547   11.87114    8.14892    6.14357
     101      444        2     0.10547   23.72077   12.14522    4.59821
     102      444        2     0.10547   11.84848   12.14613    4.59842
     103      444        2     0.10547   23.72071   13.06557    6.92031
     104      444        2     0.10547   11.85506   13.06607    6.92074
     105      444        3     0.17731    3.05852    6.57647   19.64534
     106      444        3     0.17731   14.91947    6.59061   19.63742
     107      444        3    -0.13862    4.44728    6.60890   19.61988
     108      444        3    -0.13862   16.30825    6.62265   19.61025
     109      444        3    -0.01202    5.18741    5.52585   20.12473
     110      444        3    -0.01202   17.04858    5.53858   20.11275
     111      444        3    -0.13862    4.44656    4.44654   20.63664
     112      444        3    -0.13862   16.30773    4.45806   20.62210
     113      444        3     0.17731    3.05762    4.48893   20.63044
     114      444        3     0.17731   14.91890    4.50064   20.61846
     115      444        3     0.17731    3.05781    7.29562    1.81147
     116      444        3     0.17731   14.91929    7.29223    1.81447
     117      444        3    -0.13862    4.44667    7.26642    1.84592
     118      444        3    -0.13862   16.30819    7.26271    1.84784
     119      444        3    -0.01202    5.18834    8.31298    1.27111
     120      444        3    -0.01202   17.04968    8.30803    1.26213
     121      444        3    -0.13862    4.44934    9.35640    0.68711
     122      444        3    -0.13862   16.31041    9.35015    0.68476
     123      444        3     0.17731    3.06042    9.31814    0.69759
     124      444        3     0.17731   14.92159    9.31155    0.69503
     125      444        3     0.17731    8.80893    0.35399    8.94207
     126      444        3     0.17731   20.67016    0.36285    8.93800
     127      444        3    -0.13862    7.41996    0.31950    8.91597
     128      444        3    -0.13862   19.28126    0.32866    8.91041
     129      444        3    -0.01202    6.67785    1.40165    9.42018
     130      444        3    -0.01202   18.53885    1.40574    9.42488
     131      444        3    -0.13862    7.41745    2.48351    9.92867
     132      444        3    -0.13862   19.27781    2.48300    9.94385
     133      444        3     0.17731    8.80628    2.44331    9.92375
     134      444        3     0.17731   20.66662    2.44297    9.94000
     135      444        3     0.17731    8.79989   13.46202   12.48223
     136      444        3     0.17731   20.66165   13.46415   12.48950
     137      444        3    -0.13862    7.41099   13.49398   12.51752
     138      444        3    -0.13862   19.27263   13.49675   12.52266
     139      444        3    -0.01202    6.66749   12.43623   11.96583
     140      444        3    -0.01202   18.52868   12.43991   11.96882
     141      444        3    -0.13862    7.40539   11.37976   11.40407
     142      444        3    -0.13862   19.26654   11.38372   11.40728
     143      444        3     0.17731    8.79417   11.41829   11.40942
     144      444        3     0.17731   20.65546   11.42106   11.41434
     145      444        3     0.17731    8.80219    7.25506    1.73061
     146      444        3     0.17731   20.66442    7.25508    1.73617
     147      444        3    -0.13862    7.41348    7.22000    1.75329
     148      444        3    -0.13862   19.27569    7.21948    1.76013
     149      444        3    -0.01202    6.67270    8.31405    1.27389
     150      444        3    -0.01202   18.53408    8.30925    1.27218
     151      444        3    -0.13862    7.41244    9.40760    0.79150
     152      444        3    -0.13862   19.27308    9.39818    0.77653
     153      444        3     0.17731    8.80143    9.36645    0.79621
     154      444        3     0.17731   20.66208    9.35744    0.78166
     155      444        3     0.17731    8.80311    6.54524   19.59250
     156      444        3     0.17731   20.66527    6.56187   19.59250
     157      444        3    -0.13862    7.41430    6.57721   19.56191
     158      444        3    -0.13862   19.27644    6.59394   19.55977
     159      444        3    -0.01202    6.67196    5.52428   20.12409
     160      444        3    -0.01202   18.53322    5.53691   20.11297
     161      444        3    -0.13862    7.41065    4.47180   20.69226
     162      444        3    -0.13862   19.27125    4.47992   20.67344
     163      444        3     0.17731    8.79960    4.50935   20.68135
     164      444        3     0.17731   20.66019    4.51760   20.66552
     165      444        3     0.17731    3.05154   13.47904   12.45399
     166      444        3     0.17731   14.91269   13.48736   12.45014
     167      444        3    -0.13862    4.44044   13.51317   12.48180
     168      444        3    -0.13862   16.30166   13.52191   12.47645
     169      444        3    -0.01202    5.18283   12.43611   11.96732
     170      444        3    -0.01202   17.04385   12.44006   11.97182
     171      444        3    -0.13862    4.44387   11.35924   11.44750
     172      444        3    -0.13862   16.30430   11.35859   11.46226
     173      444        3     0.17731    3.05506   11.39925   11.45135
     174      444        3     0.17731   14.91547   11.39869   11.46696
     175      444        3     0.17731    3.05999    0.37807    8.90185
     176      444        3     0.17731   14.92182    0.38019    8.90720
     177      444        3    -0.13862    4.44901    0.34530    8.86891
     178      444        3    -0.13862   16.31072    0.34815    8.87404
     179      444        3    -0.01202    5.19300    1.40204    9.42189
     180      444        3    -0.01202   17.05419    1.40574    9.42595
     181      444        3    -0.13862    4.45522    2.45789    9.98493
     182      444        3    -0.13862   16.31629    2.46177    9.98856
     183      444        3     0.17731    3.06632    2.42076    9.97723
     184      444        3     0.17731   14.92751    2.42338    9.98150
     185      444        3     0.64759   -0.00017    4.70048    1.42021
     186      444        3     0.64759   11.86488    4.70064    1.42021
     187      444        3    -0.01202   -0.00007    4.18530    2.82588
     188      444        3    -0.01202   11.86536    4.18590    2.82610
     189      444        3    -0.13862    0.00001    2.79797    3.05478
     190      444        3    -0.13862   11.88924    2.79886    3.05542
     191      444        3    -0.13862    0.00262    2.30039    4.35391
     192      444        3    -0.13862   11.88796    2.30166    4.35455
     193      444        3    -0.01202    0.00012    3.17934    5.44854
     194      444        3    -0.01202   11.86309    3.18060    5.44918
     195      444        3    -0.13862   23.72054    4.56236    5.21858
     196      444        3    -0.13862   11.83961    4.56336    5.21858
     197      444        3    -0.13862   23.72028    5.06644    3.91944
     198      444        3    -0.13862   11.84092    5.06710    3.91923
     199      444        3     0.64759    0.00022    2.64789    6.85421
     200      444        3     0.64759   11.86060    2.64894    6.85399
     201      444        3     0.64759   23.72086    9.14213   19.97135
     202      444        3     0.64759   11.86140    9.14162   19.97135
     203      444        3    -0.01202   23.72057    9.65701   18.56547
     204      444        3    -0.01202   11.86216    9.65618   18.56397
     205      444        3    -0.13862   23.71906   11.04433   18.33657
     206      444        3    -0.13862   11.86138   11.04343   18.33593
     207      444        3    -0.13862   23.71932   11.54179   17.03744
     208      444        3    -0.13862   11.85987   11.54050   17.03680
     209      444        3    -0.01202   23.72126   10.66277   15.94281
     210      444        3    -0.01202   11.86268   10.66131   15.94217
     211      444        3    -0.13862    0.00100    9.27976   16.17277
     212      444        3    -0.13862   11.86577    9.27835   16.17277
     213      444        3    -0.13862    0.00074    8.77577   17.47212
     214      444        3    -0.13862   11.86326    8.77472   17.47212
     215      444        3     0.64759   23.72146   11.19438   14.53714
     216      444        3     0.64759   11.86215   11.19313   14.53672
     217      444        3     0.64759   23.72167    2.21270   12.13161
     218      444        3     0.64759   11.86195    2.21244   12.13119
     219      444        3    -0.01202   23.72050    2.73134   13.53621
     220      444        3    -0.01202   11.86211    2.73076   13.53600
     221      444        3    -0.13862   23.71966    4.11936   13.76061
     222      444        3    -0.13862   11.86177    4.11873   13.76061
     223      444        3    -0.13862   23.72008    4.62097   15.05804
     224      444        3    -0.13862   11.85991    4.62014   15.05804
     225      444        3    -0.01202   23.72139    3.74547   16.15523
     226      444        3    -0.01202   11.86265    3.74452   16.15523
     227      444        3    -0.13862   23.72219    2.36173   15.92848
     228      444        3    -0.13862   11.86517    2.36080   15.92848
     229      444        3    -0.13862   23.72160    1.85342   14.63234
     230      444        3    -0.13862   11.86293    1.85267   14.63212
     231      444        3     0.64759   23.72179    4.28405   17.55791
     232      444        3     0.64759   11.86236    4.28336   17.55769
     233      444        3     0.64759   -0.00012   11.62933    9.25995
     234      444        3     0.64759   11.85997   11.62930    9.26017
     235      444        3    -0.01202    0.00116   11.11056    7.85514
     236      444        3    -0.01202   11.86019   11.11088    7.85535
     237      444        3    -0.13862    0.00252    9.72255    7.63074
     238      444        3    -0.13862   11.86338    9.72292    7.63052
     239      444        3    -0.13862   -0.00015    9.22097    6.33331
     240      444        3    -0.13862   11.86564    9.22159    6.33310
     241      444        3    -0.01202    0.00107   10.09653    5.23612
     242      444        3    -0.01202   11.85961   10.09729    5.23590
     243      444        3    -0.13862   23.72159   11.48026    5.46138
     244      444        3    -0.13862   11.85407   11.48098    5.46159
     245      444        3    -0.13862   -0.00027   11.98851    6.75773
     246      444        3    -0.13862   11.85617   11.98902    6.75944
     247      444        3     0.64759    0.00048    9.55845    3.83323
     248      444        3     0.64759   11.85985    9.55903    3.83323
     249      444        4    -0.30787    2.36760    5.53812   20.14698
     250      444        4    -0.30787   14.22860    5.55137   20.13842
     251      444        4    -0.30787    2.36863    8.30191    1.24480
     252      444        4    -0.30787   14.22989    8.29636    1.24437
     253      444        4    -0.30787    9.49845    1.39454    9.44264
     254      444        4    -0.30787   21.35895    1.39881    9.44906
     255      444        4    -0.30787    9.48759   12.44451   11.93545
     256      444        4    -0.30787   21.34935   12.44643   11.94144
     257      444        4    -0.30787    9.49223    8.30640    1.25421
     258      444        4    -0.30787   21.35370    8.30174    1.24844
     259      444        4    -0.30787    9.49184    5.53137   20.14591
     260      444        4    -0.30787   21.35332    5.54399   20.13949
     261      444        4    -0.30787    2.36278   12.44323   11.94272
     262      444        4    -0.30787   14.22323   12.44712   11.94893
     263      444        4    -0.30787    2.37236    1.39562    9.45034
     264      444        4    -0.30787   14.23412    1.39735    9.45526
     265      444        5    -0.60669   23.72104    3.85664    0.46356
     266      444        5    -0.60669   11.88881    3.85696    0.46378
     267      444        5    -0.60669   23.72097    5.96353    1.19667
     268      444        5    -0.60669   11.83368    5.96329    1.19645
     269      444        5    -0.60669    0.00030    1.37326    7.01422
     270      444        5    -0.60669   11.89152    1.37464    7.01443
     271      444        5    -0.64931   23.72204    3.46172    7.82754
     272      444        5    -0.64931   11.83115    3.46214    7.82797
     273      444        5    -0.60669   23.72215    9.98613   20.92757
     274      444        5    -0.60669   11.88800    9.98548   20.92736
     275      444        5    -0.60669    0.00079    7.87909   20.19404
     276      444        5    -0.60669   11.83543    7.87887   20.19533
     277      444        5    -0.60669   23.72011   12.46900   14.37756
     278      444        5    -0.60669   11.83180   12.46744   14.37734
     279      444        5    -0.64931    0.00031   10.38069   13.56381
     280      444        5    -0.64931   11.89039   10.38012   13.56317
     281      444        5    -0.60669    0.00109    3.05760   11.17496
     282      444        5    -0.60669   11.88778    3.05711   11.17475
     283      444        5    -0.60669   23.72250    0.94998   11.91106
     284      444        5    -0.60669   11.83515    0.95001   11.91042
     285      444        5    -0.60669   23.72114    5.56033   17.70808
     286      444        5    -0.60669   11.83322    5.55936   17.70744
     287      444        5    -0.64931    0.00148    3.47670   18.53659
     288      444        5    -0.64931   11.89085    3.47664   18.53616
     289      444        5    -0.60669   23.72064   10.78455   10.21660
     290      444        5    -0.60669   11.83433   10.78478   10.21660
     291      444        5    -0.60669   23.72118   12.89203    9.48050
     292      444        5    -0.60669   11.88670   12.89174    9.48093
     293      444        5    -0.60669   -0.00024    8.28218    3.68220
     294      444        5    -0.60669   11.89077    8.28313    3.68242
     295      444        5    -0.64931   23.72006   10.36627    2.85498
     296      444        5    -0.64931   11.82991   10.36629    2.85498
     297      444        1     0.97211   23.72327    5.44100   41.45105
     298      444        1     0.97211   11.86156    5.44116   41.45062
     299      444        1     0.97211    0.00075    8.43538   22.72407
     300      444        1     0.97211   11.86158    8.43477   22.72429
     301      444        1     0.97211    0.00530    1.53975   30.75762
     302      444        1     0.97211   11.86754    1.53877   30.75741
     303      444        1     0.97211   23.71879   12.33609   33.41793
     304      444        1     0.97211   11.85627   12.33671   33.41793
     305      444        2     0.10547    2.46257    7.42004   40.65121
     306      444        2     0.10547   14.32397    7.43540   40.64522
     307      444        2     0.10547    4.93577    7.50568   40.59837
     308      444        2     0.10547   16.79658    7.52007   40.58981
     309      444        2     0.10547    4.93431    3.57709   42.43016
     310      444        2     0.10547   16.79548    3.58788   42.41412
     311      444        2     0.10547    2.45830    3.68374   42.41711
     312      444        2     0.10547   14.31949    3.69486   42.40257
     313      444        2     0.10547    2.46111    6.51101   23.63901
     314      444        2     0.10547   14.32310    6.50920   23.64564
     315      444        2     0.10547    4.93428    6.43893   23.72137
     316      444        2     0.10547   16.79592    6.43612   23.72479
     317      444        2     0.10547    4.93914   10.22348   21.60805
     318      444        2     0.10547   16.79983   10.21677   21.60442
     319      444        2     0.10547    2.46193   10.13256   21.64741
     320      444        2     0.10547   14.32257   10.12377   21.64014
     321      444        2     0.10547    9.40740   13.37023   29.94900
     322      444        2     0.10547   21.26963   13.38326   29.93767
     323      444        2     0.10547    6.93453   13.28062   29.89595
     324      444        2     0.10547   18.79614   13.29409   29.88098
     325      444        2     0.10547    6.93087    3.38625   31.72155
     326      444        2     0.10547   18.79085    3.38125   31.74593
     327      444        2     0.10547    9.40563    3.28470   31.70743
     328      444        2     0.10547   21.26615    3.27999   31.73224
     329      444        2     0.10547    9.40159    0.46136   34.29522
     330      444        2     0.10547   21.26295    0.46340   34.29992
     331      444        2     0.10547    6.92800    0.54244   34.37073
     332      444        2     0.10547   18.78998    0.54471   34.37715
     333      444        2     0.10547    6.91762   10.53409   32.34833
     334      444        2     0.10547   18.77855   10.53920   32.34897
     335      444        2     0.10547    9.39363   10.62970   32.37165
     336      444        2     0.10547   21.25413   10.63155   32.37721
     337      444        2     0.10547    9.40178    6.43661   23.48755
     338      444        2     0.10547   21.26418    6.44043   23.50146
     339      444        2     0.10547    6.92739    6.34480   23.53269
     340      444        2     0.10547   18.79036    6.34805   23.54895
     341      444        2     0.10547    6.92560   10.32083   21.80678
     342      444        2     0.10547   18.78575   10.30780   21.78582
     343      444        2     0.10547    9.40185   10.21604   21.81641
     344      444        2     0.10547   21.26221   10.20280   21.79202
     345      444        2     0.10547    9.40293    7.36790   40.55858
     346      444        2     0.10547   21.26529    7.38780   40.56521
     347      444        2     0.10547    6.92977    7.44732   40.48584
     348      444        2     0.10547   18.79266    7.46792   40.48991
     349      444        2     0.10547    6.92329    3.63085   42.54162
     350      444        2     0.10547   18.78336    3.63523   42.51445
     351      444        2     0.10547    9.39948    3.72248   42.50568
     352      444        2     0.10547   21.25965    3.72770   42.48493
     353      444        2     0.10547    2.45434    0.49211   34.23874
     354      444        2     0.10547   14.31638    0.50443   34.22783
     355      444        2     0.10547    4.92783    0.58105   34.29564
     356      444        2     0.10547   16.78923    0.59405   34.28131
     357      444        2     0.10547    4.93305   10.49466   32.42919
     358      444        2     0.10547   16.79317   10.48974   32.45294
     359      444        2     0.10547    2.45772   10.59598   32.44288
     360      444        2     0.10547   14.31844   10.59111   32.46663
     361      444        2     0.10547    2.46088   13.41259   29.87349
     362      444        2     0.10547   14.32231   13.41463   29.87991
     363      444        2     0.10547    4.93385   13.33125   29.79776
     364      444        2     0.10547   16.79592   13.33364   29.80418
     365      444        2     0.10547    4.94551    3.33587   31.82701
     366      444        2     0.10547   16.80632    3.34082   31.82872
     367      444        2     0.10547    2.46991    3.24375   31.79898
     368      444        2     0.10547   14.33030    3.24530   31.80519
     369      444        2     0.10547    0.00573    2.14490   23.58745
     370      444        2     0.10547   11.90897    2.14567   23.58831
     371      444        2     0.10547    0.00129    1.24497   25.93822
     372      444        2     0.10547   11.90722    1.24648   25.93929
     373      444        2     0.10547   23.71991    5.24728   27.47138
     374      444        2     0.10547   11.82193    5.24845   27.46946
     375      444        2     0.10547   23.71903    6.15977   25.14736
     376      444        2     0.10547   11.82606    6.16026   25.14672