Created on Tue Feb 06 14:58:58 2018 

        2592 atoms
        2970 bonds
        5508 angles
        5616 dihedrals
        3240 impropers

           5 atom types
           7 bond types
          12 angle types
           2 dihedral types
           1 improper types
           0.000000  34.882111 xlo xhi
           0.000000  34.771071 ylo yhi
           0.000000  30.988123 zlo zhi
          -3.155950 -15.485543  -4.645365 xy xz yz

Masses

    1   107.868200000 # Ag1+1
    2     1.007940000 # H_
    3    12.010700000 # C_R
    4    12.010700000 # C_3
    5    14.006700000 # N_R

Bond Coeffs

    1      188.719141        2.061083  # Ag1+1 N_R
    2       59.645075        2.772000  # Ag1+1 Ag1+1
    3      357.440381        1.081418  # H_ C_R
    4      331.069389        1.109401  # H_ C_3
    5      663.718927        1.345073  # C_R N_R
    6      369.943935        1.486000  # C_R C_3
    7      462.655054        1.379256  # C_R C_R

Angle Coeffs

    1              cosine/periodic       14.444854               1               1 # N_R Ag1+1 N_R
    2              cosine/periodic        5.123550               1               1 # N_R Ag1+1 Ag1+1
    3              cosine/periodic        1.940565               1               1 # Ag1+1 Ag1+1 Ag1+1
    4              cosine/periodic      234.844275              -1               3 # N_R C_R N_R
    5              cosine/periodic      136.632200              -1               3 # N_R C_R C_3
    6              cosine/periodic      165.695700              -1               3 # C_R C_R N_R
    7              cosine/periodic       76.817955              -1               3 # H_ C_R C_R
    8              cosine/periodic      109.704024              -1               3 # H_ C_R N_R
    9                      fourier       73.868412        0.343737        0.374972        0.281246 # C_R C_3 H_
   10                      fourier       61.342703        0.343737        0.374972        0.281246 # H_ C_3 H_
   11              cosine/periodic       41.196605              -1               3 # Ag1+1 N_R C_R
   12              cosine/periodic      132.654363              -1               3 # C_R N_R C_R

Dihedral Coeffs

    1        1.497136              -1               2 # C_3 C_R N_R C_R
    2        0.083333               1               3 # N_R C_R C_3 H_

Improper Coeffs

    1        2.000000        1.000000       -1.000000        0.000000               0 # N_R C_R N_R C_3

Pair Coeffs

    1        0.036000        2.804549 # Ag1+1 Ag1+1
    2        0.044000        2.571134 # H_ H_
    3        0.105000        3.430851 # C_R C_R
    4        0.105000        3.430851 # C_3 C_3
    5        0.069000        3.260689 # N_R N_R

Atoms

       1      444        1     0.30140    2.54776    3.67082    3.03038
       2      444        1     0.32808    7.77572    2.00655    5.78822
       3      444        1     0.30047    1.63167    1.47414    1.22837
       4      444        1     0.29822   -3.09757    5.04176    5.16951
       5      444        1     0.29779    7.99668   10.79661    5.15216
       6      444        1     0.30253    2.86597    6.37103    7.29930
       7      444        1     0.32949   -2.36199    8.03531    4.54145
       8      444        1     0.30206    3.78204    8.56774    9.10133
       9      444        2     0.10877    5.40850    3.72754    1.31538
      10      444        2     0.10721    7.78316    2.94048    2.51293
      11      444        2     0.12321    3.33732    2.27036    5.41262
      12      444        2     0.12480    4.76596    1.42242    6.05583
      13      444        2     0.13950    4.55375    3.16486    6.35109
      14      444        2     0.10772   -0.82931    1.33713    7.20760
      15      444        2     0.10884   -0.72893    0.35319    9.79934
      16      444        2     0.12499    6.12104    2.18452    8.37423
      17      444        2     0.13866    5.98392    0.41118    8.30379
      18      444        2     0.12348    6.16168    1.22472    9.87444
      19      444        2     0.11798    5.20799    5.04372    9.30755
      20      444        2     0.11950   -3.86091    4.54984    8.34029
      21      444        2     0.12004    4.39944    5.92451    4.52665
      22      444        2     0.13018    6.10569    6.25021    4.16554
      23      444        2     0.13519    5.11419    7.49197    4.97944
      24      444        2     0.11820    0.21672    5.00877    1.02413
      25      444        2     0.11963    9.29281    5.52804    1.99740
      26      444        2     0.13048   -0.67381    3.83267    6.17422
      27      444        2     0.11894    1.03458    4.13614    5.80381
      28      444        2     0.13570    0.29930    2.57522    5.36183
      29      444        2     0.11855    2.85938   10.01557    6.22466
      30      444        2     0.12022    4.78125   10.92076    4.43225
      31      444        2     0.12057   -4.76260    9.43983    9.03908
      32      444        2     0.13071   -3.64785    9.36388    7.66108
      33      444        2     0.13550   -4.64603    7.94394    8.07924
      34      444        2     0.11847    2.55787    0.01741    4.09377
      35      444        2     0.12058   -0.41540   10.67827    5.87435
      36      444        2     0.13046    9.06561    0.63957    2.64306
      37      444        2     0.11948   10.18695    0.58546    1.26936
      38      444        2     0.13595   10.05288    2.07204    2.24116
      39      444        2     0.10892    0.00521    6.31429    9.01429
      40      444        2     0.10755   -2.36944    7.10141    7.81673
      41      444        2     0.12319    2.07641    7.77149    4.91706
      42      444        2     0.12460    0.64777    8.61943    4.27385
      43      444        2     0.13952    0.85999    6.87699    3.97861
      44      444        2     0.10806    6.24301    8.70475    3.12208
      45      444        2     0.10878    6.14263    9.68869    0.53034
      46      444        2     0.12478   -0.70732    7.85734    1.95543
      47      444        2     0.13881   -0.57021    9.63067    2.02590
      48      444        2     0.12356   -0.74796    8.81715    0.45526
      49      444        3     0.41658    5.14728    2.65906    4.34860
      50      444        3    -0.06044    5.59643    3.34136    2.31086
      51      444        3    -0.05998    6.77276    2.94674    2.90331
      52      444        4    -0.45341    4.41390    2.36295    5.60989
      53      444        3     0.41717   -3.66744    1.14308    8.72583
      54      444        3    -0.06137   -1.62540    1.17360    7.92397
      55      444        3    -0.06025   -1.57552    0.68211    9.20722
      56      444        4    -0.45294    6.47788    1.24706    8.82271
      57      444        3     0.42279    5.70998    5.85128    6.22330
      58      444        3    -0.06910    5.63289    5.22054    8.32586
      59      444        3    -0.07259    6.90202    4.98379    7.85008
      60      444        4    -0.44038    5.31033    6.41119    4.90429
      61      444        3     0.42063   -0.28274    4.21693    4.11283
      62      444        3    -0.06857   -0.20672    4.83902    2.00773
      63      444        3    -0.07315   -1.47230    5.08857    2.48657
      64      444        4    -0.43979    0.11620    3.65855    5.43265
      65      444        3     0.42368    5.92545    9.53906    7.11301
      66      444        3    -0.06828    3.94161    9.97814    6.27843
      67      444        3    -0.07407    4.89242   10.41867    5.38692
      68      444        4    -0.44227   -4.63348    9.04331    8.02159
      69      444        3     0.42031   -0.50857    0.47820    3.19854
      70      444        3    -0.06771    1.47558    0.04791    4.03670
      71      444        3    -0.07510    0.52499   -0.40489    4.92239
      72      444        4    -0.44105   10.04986    0.97216    2.28963
      73      444        3     0.41665    0.26645    7.38280    5.98108
      74      444        3    -0.06049   -0.18270    6.70050    8.01882
      75      444        3    -0.06072   -1.35903    7.09514    7.42637
      76      444        4    -0.45344    0.99984    7.67890    4.71980
      77      444        3     0.41739    9.08115    8.89880    1.60385
      78      444        3    -0.06187    7.03911    8.86828    2.40571
      79      444        3    -0.05970    6.98923    9.35977    1.12246
      80      444        4    -0.45307   -1.06418    8.79482    1.50697
      81      444        5    -0.37785    4.57069    3.15644    3.22568
      82      444        5    -0.38583    6.48479    2.50903    4.18701
      83      444        5    -0.38545   -2.94648    1.47101    7.62581
      84      444        5    -0.37730   -2.86702    0.66599    9.71216
      85      444        5    -0.38592    4.88261    5.76439    7.29467
      86      444        5    -0.37673    6.94548    5.38417    6.52279
      87      444        5    -0.37537   -1.51505    4.69385    3.81553
      88      444        5    -0.38499    0.54198    4.29255    3.03859
      89      444        5    -0.38577    4.59797    9.42712    7.36817
      90      444        5    -0.37672    6.14276   10.13861    5.91814
      91      444        5    -0.37450   -0.72553   -0.13054    4.38884
      92      444        5    -0.38361    0.81888    0.60113    2.94833
      93      444        5    -0.37758    0.84303    6.88541    7.10400
      94      444        5    -0.38578   -1.07107    7.53285    6.14266
      95      444        5    -0.38578    8.36018    8.57087    2.70387
      96      444        5    -0.37756    8.28075    9.37589    0.61751
      97      444        1     0.30140   -2.61409    2.12237   13.35975
      98      444        1     0.32808    2.61387    0.45809   16.11759
      99      444        1     0.30047   -3.53018   -0.07432   11.55774
     100      444        1     0.29822   -8.25942    3.49331   15.49889
     101      444        1     0.29779    2.83483    9.24816   15.48153
     102      444        1     0.30253   -2.29588    4.82258   17.62868
     103      444        1     0.32949   -7.52384    6.48686   14.87083
     104      444        1     0.30206   -1.37980    7.01929   19.43070
     105      444        2     0.10877    0.24665    2.17909   11.64476
     106      444        2     0.10721    2.62131    1.39202   12.84230
     107      444        2     0.12321   -1.82452    0.72191   15.74200
     108      444        2     0.12480   -0.39589   -0.12603   16.38521
     109      444        2     0.13950   -0.60810    1.61641   16.68046
     110      444        2     0.10772   -5.99115   -0.21132   17.53697
     111      444        2     0.10884   -5.89077   -1.19526   20.12872
     112      444        2     0.12499    0.95919    0.63606   18.70360
     113      444        2     0.13866    0.82207   -1.13728   18.63317
     114      444        2     0.12348    0.99983   -0.32373   20.20381
     115      444        2     0.11798    0.04614    3.49527   19.63693
     116      444        2     0.11950   -9.02276    3.00139   18.66966
     117      444        2     0.12004   -0.76241    4.37606   14.85603
     118      444        2     0.13018    0.94384    4.70176   14.49491
     119      444        2     0.13519   -0.04766    5.94351   15.30881
     120      444        2     0.11820   -4.94513    3.46032   11.35350
     121      444        2     0.11963    4.13096    3.97959   12.32678
     122      444        2     0.13048   -5.83566    2.28422   16.50359
     123      444        2     0.11894   -4.12727    2.58768   16.13318
     124      444        2     0.13570   -4.86255    1.02677   15.69121
     125      444        2     0.11855   -2.30247    8.46711   16.55403
     126      444        2     0.12022   -0.38059    9.37230   14.76163
     127      444        2     0.12057   -9.92445    7.89138   19.36845
     128      444        2     0.13071   -8.80969    7.81543   17.99045
     129      444        2     0.13550   -9.80788    6.39549   18.40862
     130      444        2     0.11847   -2.60397   -1.53105   14.42314
     131      444        2     0.12058   -5.57724    9.12981   16.20372
     132      444        2     0.13046    3.90376   -0.90889   12.97243
     133      444        2     0.11948    5.02510   -0.96300   11.59873
     134      444        2     0.13595    4.89103    0.52359   12.57054
     135      444        2     0.10892   -5.15664    4.76584   19.34366
     136      444        2     0.10755   -7.53129    5.55295   18.14611
     137      444        2     0.12319   -3.08544    6.22304   15.24644
     138      444        2     0.12460   -4.51407    7.07098   14.60323
     139      444        2     0.13952   -4.30186    5.32854   14.30798
     140      444        2     0.10806    1.08117    7.15629   13.45146
     141      444        2     0.10878    0.98079    8.14023   10.85972
     142      444        2     0.12478   -5.86917    6.30889   12.28481
     143      444        2     0.13881   -5.73205    8.08222   12.35527
     144      444        2     0.12356   -5.90981    7.26870   10.78463
     145      444        3     0.41658   -0.01456    1.11060   14.67798
     146      444        3    -0.06044    0.43458    1.79290   12.64023
     147      444        3    -0.05998    1.61091    1.39829   13.23268
     148      444        4    -0.45341   -0.74794    0.81450   15.93927
     149      444        3     0.41717   -8.82929   -0.40537   19.05521
     150      444        3    -0.06137   -6.78725   -0.37486   18.25335
     151      444        3    -0.06025   -6.73737   -0.86635   19.53660
     152      444        4    -0.45294    1.31604   -0.30140   19.15209
     153      444        3     0.42279    0.54813    4.30283   16.55268
     154      444        3    -0.06910    0.47104    3.67208   18.65523
     155      444        3    -0.07259    1.74017    3.43533   18.17945
     156      444        4    -0.44038    0.14848    4.86273   15.23367
     157      444        3     0.42063   -5.44459    2.66848   14.44220
     158      444        3    -0.06857   -5.36857    3.29057   12.33711
     159      444        3    -0.07315   -6.63415    3.54012   12.81594
     160      444        4    -0.43979   -5.04565    2.11010   15.76203
     161      444        3     0.42368    0.76361    7.99061   17.44239
     162      444        3    -0.06828   -1.22024    8.42968   16.60781
     163      444        3    -0.07407   -0.26943    8.87021   15.71630
     164      444        4    -0.44227   -9.79533    7.49485   18.35096
     165      444        3     0.42031   -5.67041   -1.07025   13.52792
     166      444        3    -0.06771   -3.68627   -1.50054   14.36607
     167      444        3    -0.07510   -4.63686   -1.95335   15.25177
     168      444        4    -0.44105    4.88801   -0.57630   12.61900
     169      444        3     0.41665   -4.89540    5.83434   16.31045
     170      444        3    -0.06049   -5.34455    5.15204   18.34819
     171      444        3    -0.06072   -6.52088    5.54668   17.75574
     172      444        4    -0.45344   -4.16201    6.13044   15.04918
     173      444        3     0.41739    3.91930    7.35034   11.93323
     174      444        3    -0.06187    1.87726    7.31982   12.73509
     175      444        3    -0.05970    1.82738    7.81132   11.45184
     176      444        4    -0.45307   -6.22602    7.24637   11.83635
     177      444        5    -0.37785   -0.59115    1.60799   13.55505
     178      444        5    -0.38583    1.32295    0.96058   14.51639
     179      444        5    -0.38545   -8.10833   -0.07744   17.95518
     180      444        5    -0.37730   -8.02887   -0.88247   20.04154
     181      444        5    -0.38592   -0.27923    4.21594   17.62404
     182      444        5    -0.37673    1.78364    3.83572   16.85217
     183      444        5    -0.37537   -6.67690    3.14539   14.14490
     184      444        5    -0.38499   -4.61986    2.74410   13.36797
     185      444        5    -0.38577   -0.56388    7.87867   17.69754
     186      444        5    -0.37672    0.98091    8.59016   16.24752
     187      444        5    -0.37450   -5.88738   -1.67899   14.71821
     188      444        5    -0.38361   -4.34297   -0.94732   13.27771
     189      444        5    -0.37758   -4.31881    5.33696   17.43337
     190      444        5    -0.38578   -6.23292    5.98439   16.47204
     191      444        5    -0.38578    3.19833    7.02241   13.03324
     192      444        5    -0.37756    3.11890    7.82744   10.94688
     193      444        1     0.30140   -7.77593    0.57391   23.68913
     194      444        1     0.32808   -2.54798   -1.09036   26.44697
     195      444        1     0.30047   -8.69202   -1.62277   21.88712
     196      444        1     0.29822  -13.42127    1.94485   25.82826
     197      444        1     0.29779   -2.32702    7.69970   25.81091
     198      444        1     0.30253   -7.45772    3.27412   27.95805
     199      444        1     0.32949  -12.68568    4.93840   25.20020
     200      444        1     0.30206   -6.54165    5.47083   29.76007
     201      444        2     0.10877   -4.91520    0.63063   21.97413
     202      444        2     0.10721   -2.54054   -0.15643   23.17168
     203      444        2     0.12321   -6.98637   -0.82655   26.07137
     204      444        2     0.12480   -5.55774   -1.67449   26.71458
     205      444        2     0.13950   -5.76994    0.06795   27.00984
     206      444        2     0.10772  -11.15300   -1.75978   27.86635
     207      444        2     0.10884  -11.05262   -2.74372   30.45809
     208      444        2     0.12499   -4.20266   -0.91239   29.03298
     209      444        2     0.13866   -4.33977   -2.68573   28.96254
     210      444        2     0.12348   -4.16202   -1.87219   30.53319
     211      444        2     0.11798   -5.11571    1.94681   29.96630
     212      444        2     0.11950  -14.18461    1.45293   28.99904
     213      444        2     0.12004   -5.92426    2.82760   25.18540
     214      444        2     0.13018   -4.21801    3.15330   24.82429
     215      444        2     0.13519   -5.20951    4.39506   25.63819
     216      444        2     0.11820  -10.10698    1.91186   21.68287
     217      444        2     0.11963   -1.03088    2.43113   22.65615
     218      444        2     0.13048  -10.99751    0.73576   26.83297
     219      444        2     0.11894   -9.28912    1.03923   26.46256
     220      444        2     0.13570  -10.02440   -0.52169   26.02058
     221      444        2     0.11855   -7.46432    6.91866   26.88340
     222      444        2     0.12022   -5.54244    7.82385   25.09100
     223      444        2     0.12057  -15.08630    6.34292   29.69783
     224      444        2     0.13071  -13.97154    6.26697   28.31983
     225      444        2     0.13550  -14.96973    4.84703   28.73799
     226      444        2     0.11847   -7.76582   -3.07950   24.75252
     227      444        2     0.12058  -10.73909    7.58136   26.53309
     228      444        2     0.13046   -1.25809   -2.45734   23.30181
     229      444        2     0.11948   -0.13675   -2.51145   21.92810
     230      444        2     0.13595   -0.27082   -1.02487   22.89991
     231      444        2     0.10892  -10.31849    3.21738   29.67304
     232      444        2     0.10755  -12.69313    4.00450   28.47548
     233      444        2     0.12319   -8.24729    4.67458   25.57581
     234      444        2     0.12460   -9.67592    5.52252   24.93260
     235      444        2     0.13952   -9.46371    3.78008   24.63735
     236      444        2     0.10806   -4.08068    5.60784   23.78083
     237      444        2     0.10878   -4.18106    6.59178   21.18909
     238      444        2     0.12478  -11.03101    4.76043   22.61418
     239      444        2     0.13881  -10.89390    6.53376   22.68465
     240      444        2     0.12356  -11.07166    5.72024   21.11401
     241      444        3     0.41658   -5.17641   -0.43785   25.00735
     242      444        3    -0.06044   -4.72726    0.24445   22.96961
     243      444        3    -0.05998   -3.55094   -0.15017   23.56206
     244      444        4    -0.45341   -5.90979   -0.73396   26.26864
     245      444        3     0.41717  -13.99114   -1.95383   29.38458
     246      444        3    -0.06137  -11.94910   -1.92331   28.58272
     247      444        3    -0.06025  -11.89921   -2.41480   29.86597
     248      444        4    -0.45294   -3.84581   -1.84985   29.48146
     249      444        3     0.42279   -4.61371    2.75437   26.88205
     250      444        3    -0.06910   -4.69080    2.12363   28.98461
     251      444        3    -0.07259   -3.42168    1.88688   28.50882
     252      444        4    -0.44038   -5.01336    3.31428   25.56304
     253      444        3     0.42063  -10.60644    1.12002   24.77157
     254      444        3    -0.06857  -10.53042    1.74211   22.66648
     255      444        3    -0.07315  -11.79600    1.99166   23.14532
     256      444        4    -0.43979  -10.20750    0.56164   26.09140
     257      444        3     0.42368   -4.39824    6.44215   27.77176
     258      444        3    -0.06828   -6.38209    6.88122   26.93718
     259      444        3    -0.07407   -5.43127    7.32176   26.04567
     260      444        4    -0.44227  -14.95717    5.94640   28.68033
     261      444        3     0.42031  -10.83226   -2.61871   23.85729
     262      444        3    -0.06771   -8.84812   -3.04900   24.69545
     263      444        3    -0.07510   -9.79870   -3.50180   25.58114
     264      444        4    -0.44105   -0.27384   -2.12475   22.94838
     265      444        3     0.41665  -10.05725    4.28589   26.63983
     266      444        3    -0.06049  -10.50640    3.60359   28.67757
     267      444        3    -0.06072  -11.68273    3.99823   28.08511
     268      444        4    -0.45344   -9.32386    4.58199   25.37855
     269      444        3     0.41739   -1.24255    5.80189   22.26260
     270      444        3    -0.06187   -3.28459    5.77137   23.06446
     271      444        3    -0.05970   -3.33447    6.26286   21.78121
     272      444        4    -0.45307  -11.38787    5.69791   22.16572
     273      444        5    -0.37785   -5.75300    0.05953   23.88443
     274      444        5    -0.38583   -3.83890   -0.58788   24.84576
     275      444        5    -0.38545  -13.27017   -1.62590   28.28455
     276      444        5    -0.37730  -13.19072   -2.43092   30.37091
     277      444        5    -0.38592   -5.44108    2.66748   27.95341
     278      444        5    -0.37673   -3.37821    2.28726   27.18154
     279      444        5    -0.37537  -11.83874    1.59694   24.47427
     280      444        5    -0.38499   -9.78171    1.19564   23.69734
     281      444        5    -0.38577   -5.72573    6.33021   28.02692
     282      444        5    -0.37672   -4.18094    7.04170   26.57689
     283      444        5    -0.37450  -11.04923   -3.22745   25.04759
     284      444        5    -0.38361   -9.50481   -2.49578   23.60708
     285      444        5    -0.37758   -9.48066    3.78850   27.76274
     286      444        5    -0.38578  -11.39476    4.43594   26.80141
     287      444        5    -0.38578   -1.96351    5.47396   23.36262
     288      444        5    -0.37756   -2.04295    6.27898   21.27626
     289      444        1     0.30140    1.49578   15.26118    3.03038
     290      444        1     0.32808    6.72373   13.59690    5.78822
     291      444        1     0.30047    0.57969   13.06449    1.22837
     292      444        1     0.29822   -4.14956   16.63212    5.16951
     293      444        1     0.29779    6.94469   22.38697    5.15216
     294      444        1     0.30253    1.81399   17.96139    7.29930
     295      444        1     0.32949   -3.41397   19.62567    4.54145
     296      444        1     0.30206    2.73006   20.15810    9.10133
     297      444        2     0.10877    4.35652   15.31790    1.31538
     298      444        2     0.10721    6.73117   14.53083    2.51293
     299      444        2     0.12321    2.28534   13.86072    5.41262
     300      444        2     0.12480    3.71398   13.01278    6.05583
     301      444        2     0.13950    3.50177   14.75522    6.35109
     302      444        2     0.10772   -1.88129   12.92749    7.20760
     303      444        2     0.10884   -1.78091   11.94355    9.79934
     304      444        2     0.12499    5.06906   13.77487    8.37423
     305      444        2     0.13866    4.93194   12.00154    8.30379
     306      444        2     0.12348    5.10970   12.81508    9.87444
     307      444        2     0.11798    4.15601   16.63408    9.30755
     308      444        2     0.11950   -4.91289   16.14020    8.34029
     309      444        2     0.12004    3.34745   17.51487    4.52665
     310      444        2     0.13018    5.05370   17.84057    4.16554
     311      444        2     0.13519    4.06220   19.08233    4.97944
     312      444        2     0.11820   -0.83527   16.59913    1.02413
     313      444        2     0.11963    8.24083   17.11840    1.99740
     314      444        2     0.13048   -1.72580   15.42303    6.17422
     315      444        2     0.11894   -0.01741   15.72650    5.80381
     316      444        2     0.13570   -0.75269   14.16558    5.36183
     317      444        2     0.11855    1.80739   21.60592    6.22466
     318      444        2     0.12022    3.72927   22.51111    4.43225
     319      444        2     0.12057   -5.81459   21.03019    9.03908
     320      444        2     0.13071   -4.69983   20.95424    7.66108
     321      444        2     0.13550   -5.69802   19.53430    8.07924
     322      444        2     0.11847    1.50589   11.60776    4.09377
     323      444        2     0.12058   -1.46738   22.26862    5.87435
     324      444        2     0.13046    8.01363   12.22993    2.64306
     325      444        2     0.11948    9.13496   12.17581    1.26936
     326      444        2     0.13595    9.00089   13.66240    2.24116
     327      444        2     0.10892   -1.04678   17.90465    9.01429
     328      444        2     0.10755   -3.42142   18.69176    7.81673
     329      444        2     0.12319    1.02443   19.36185    4.91706
     330      444        2     0.12460   -0.40421   20.20979    4.27385
     331      444        2     0.13952   -0.19200   18.46735    3.97861
     332      444        2     0.10806    5.19103   20.29510    3.12208
     333      444        2     0.10878    5.09065   21.27905    0.53034
     334      444        2     0.12478   -1.75930   19.44770    1.95543
     335      444        2     0.13881   -1.62219   21.22103    2.02590
     336      444        2     0.12356   -1.79995   20.40751    0.45526
     337      444        3     0.41658    4.09530   14.24941    4.34860
     338      444        3    -0.06044    4.54445   14.93171    2.31086
     339      444        3    -0.05998    5.72077   14.53710    2.90331
     340      444        4    -0.45341    3.36192   13.95331    5.60989
     341      444        3     0.41717   -4.71943   12.73344    8.72583
     342      444        3    -0.06137   -2.67738   12.76396    7.92397
     343      444        3    -0.06025   -2.62750   12.27246    9.20722
     344      444        4    -0.45294    5.42590   12.83741    8.82271
     345      444        3     0.42279    4.65800   17.44164    6.22330
     346      444        3    -0.06910    4.58091   16.81089    8.32586
     347      444        3    -0.07259    5.85004   16.57414    7.85008
     348      444        4    -0.44038    4.25835   18.00155    4.90429
     349      444        3     0.42063   -1.33472   15.80729    4.11283
     350      444        3    -0.06857   -1.25871   16.42938    2.00773
     351      444        3    -0.07315   -2.52429   16.67893    2.48657
     352      444        4    -0.43979   -0.93578   15.24891    5.43265
     353      444        3     0.42368    4.87347   21.12942    7.11301
     354      444        3    -0.06828    2.88962   21.56849    6.27843
     355      444        3    -0.07407    3.84044   22.00903    5.38692
     356      444        4    -0.44227   -5.68546   20.63366    8.02159
     357      444        3     0.42031   -1.56055   12.06856    3.19854
     358      444        3    -0.06771    0.42360   11.63827    4.03670
     359      444        3    -0.07510   -0.52699   11.18547    4.92239
     360      444        4    -0.44105    8.99787   12.56251    2.28963
     361      444        3     0.41665   -0.78553   18.97315    5.98108
     362      444        3    -0.06049   -1.23469   18.29086    8.01882
     363      444        3    -0.06072   -2.41101   18.68549    7.42637
     364      444        4    -0.45344   -0.05215   19.26926    4.71980
     365      444        3     0.41739    8.02917   20.48915    1.60385
     366      444        3    -0.06187    5.98713   20.45864    2.40571
     367      444        3    -0.05970    5.93724   20.95013    1.12246
     368      444        4    -0.45307   -2.11616   20.38518    1.50697
     369      444        5    -0.37785    3.51871   14.74680    3.22568
     370      444        5    -0.38583    5.43281   14.09939    4.18701
     371      444        5    -0.38545   -3.99846   13.06137    7.62581
     372      444        5    -0.37730   -3.91901   12.25634    9.71216
     373      444        5    -0.38592    3.83063   17.35475    7.29467
     374      444        5    -0.37673    5.89350   16.97453    6.52279
     375      444        5    -0.37537   -2.56703   16.28420    3.81553
     376      444        5    -0.38499   -0.51000   15.88291    3.03859
     377      444        5    -0.38577    3.54599   21.01748    7.36817
     378      444        5    -0.37672    5.09077   21.72897    5.91814