Created on Tue Feb 06 14:47:47 2018 

        1296 atoms
        1452 bonds
        2808 angles
        3024 dihedrals
        2088 impropers

           5 atom types
           6 bond types
          11 angle types
           3 dihedral types
           1 improper types
           0.000000  26.898000 xlo xhi
           0.000000  36.555455 ylo yhi
           0.000000  25.294475 zlo zhi
          17.923367  11.796333   0.886472 xy xz yz

Masses

    1   138.905470000 # La3+3
    2     1.007940000 # H_
    3    12.010700000 # C_R
    4    14.006700000 # N_R
    5    35.453000000 # Cl

Bond Coeffs

    1      173.129592        2.525179  # La3+3 N_R
    2      121.021388        2.770270  # La3+3 Cl
    3      357.440381        1.081418  # H_ C_R
    4      462.655054        1.379256  # C_R C_R
    5      391.669513        1.458000  # C_R C_R
    6      663.718927        1.345073  # C_R N_R

Angle Coeffs

    1                      fourier        9.317162        0.343737        0.374972        0.281246 # Cl La3+3 N_R
    2                      fourier        6.871170        0.343737        0.374972        0.281246 # Cl La3+3 Cl
    3                      fourier       12.817962        0.343737        0.374972        0.281246 # N_R La3+3 N_R
    4              cosine/periodic       76.817955              -1               3 # H_ C_R C_R
    5              cosine/periodic      117.010657              -1               3 # C_R C_R C_R
    6              cosine/periodic      101.626578              -1               3 # C_R C_R C_R
    7              cosine/periodic      165.695700              -1               3 # C_R C_R N_R
    8              cosine/periodic      109.704024              -1               3 # H_ C_R N_R
    9              cosine/periodic       36.300215              -1               3 # C_R N_R La3+3
   10              cosine/periodic      132.654363              -1               3 # C_R N_R C_R
   11              cosine/periodic        5.540815               1               1 # La3+3 Cl La3+3

Dihedral Coeffs

    1        1.497136              -1               2 # H_ C_R C_R C_R
    2        0.555556              -1               2 # C_R C_R C_R C_R
    3        2.245703              -1               2 # C_R C_R N_R C_R

Improper Coeffs

    1        2.000000        1.000000       -1.000000        0.000000               0 # H_ C_R C_R C_R

Pair Coeffs

    1        0.017000        3.137745 # La3+3 La3+3
    2        0.044000        2.571134 # H_ H_
    3        0.105000        3.430851 # C_R C_R
    4        0.069000        3.260689 # N_R N_R
    5        0.227000        3.516377 # Cl Cl

Atoms

       1      444        1     1.67323    8.92878    1.11330    4.27578
       2      444        1     1.67323   16.39272   11.51440    8.37133
       3      444        2     0.09637    8.16684    6.05216    7.13431
       4      444        2     0.09637    9.31844    4.12011    6.11873
       5      444        2     0.09637   10.38167    2.24338    1.33175
       6      444        2     0.09637   18.14616    2.52077   12.43438
       7      444        2     0.09637   17.58035    8.48601   12.35420
       8      444        2     0.09637   14.02685   11.58910    1.26789
       9      444        2     0.09637   19.03915   10.33148    1.44786
      10      444        2     0.09637   12.86468   12.13519    7.08271
      11      444        2     0.09637   12.82381    7.88487    4.24188
      12      444        2     0.09637   17.13944   10.70323    2.97299
      13      444        2     0.09637   13.75984   10.00221    5.09064
      14      444        2     0.09637   12.99781    5.95019    3.27235
      15      444        2     0.09637   13.17162    9.50989    0.24106
      16      444        2     0.09637   10.59453   11.91028    7.95612
      17      444        2     0.09637   12.17237    3.87419    2.25298
      18      444        2     0.09637    4.74431    5.09138    4.66000
      19      444        2     0.09637   16.86007    6.30364   11.46548
      20      444        2     0.09637    6.07134    3.23822    3.72588
      21      444        2     0.09637    5.52376    0.92085    3.29385
      22      444        2     0.09637    3.16680    0.74979    4.00298
      23      444        2     0.09637   17.15214    6.57028    5.51925
      24      444        2     0.09637   16.00122    8.50378    6.53356
      25      444        2     0.09637   14.94025   10.38425   11.31561
      26      444        2     0.09637    7.17579   10.10687    0.21298
      27      444        2     0.09637    7.74142    4.14155    0.29215
      28      444        2     0.09637   11.29449    1.03876   11.37885
      29      444        2     0.09637    6.28313    2.29639   11.20001
      30      444        2     0.09637   12.45651    0.48462    5.56137
      31      444        2     0.09637   12.49680    4.74328    8.40485
      32      444        2     0.09637    8.18226    1.92455    9.67387
      33      444        2     0.09637   11.56090    2.62583    7.55609
      34      444        2     0.09637   12.32279    6.67802    9.37489
      35      444        2     0.09637   12.14992    3.11790   12.40568
      36      444        2     0.09637   14.72656    0.70790    4.68732
      37      444        2     0.09637   13.14770    8.75385   10.39350
      38      444        2     0.09637   20.58262    7.54465    7.97889
      39      444        2     0.09637    8.46163    6.32381    1.18125
      40      444        2     0.09637   19.25422    9.39620    8.91352
      41      444        2     0.09637   19.79765   11.71669    9.35453
      42      444        2     0.09637   22.15465   11.89048    8.64590
      43      444        3    -0.20822    7.63670    5.45555    6.39621
      44      444        3     0.09579   12.93490    8.47789    2.14788
      45      444        3     0.09579   12.86901    0.07979    0.45669
      46      444        3     0.09579    6.31512    5.75273    6.02160
      47      444        3     0.19980    8.29725    4.37024    5.83303
      48      444        3     0.19980   11.00238    1.34747    1.33884
      49      444        3     0.09579   12.43402    7.20450    1.58015
      50      444        3    -0.20822   12.06666    1.23492    0.45151
      51      444        3    -0.20822   11.83942    7.14553    0.30733
      52      444        3     0.19980   13.77332   10.73102    1.89064
      53      444        3    -0.20822   18.48440   11.26530    1.37817
      54      444        3     0.19980   12.01532   12.32424    6.42859
      55      444        3    -0.20822   13.10217    8.66299    3.53199
      56      444        3     0.19980   17.40712   11.45976    2.23527
      57      444        3     0.09579    3.64733    0.25997    6.07599
      58      444        3     0.19980   13.61116    9.86164    4.01815
      59      444        3    -0.20822   12.54796    5.99272    2.28080
      60      444        3    -0.20822   13.28366    9.55988    1.32341
      61      444        3    -0.20822   10.71912   12.19794    6.91424
      62      444        3     0.19980   12.10011    4.81046    1.69524
      63      444        3    -0.20822    5.75239    4.92705    5.03474
      64      444        3     0.19980   17.32540    6.35532   12.45272
      65      444        3     0.19980    6.48497    3.86908    4.51279
      66      444        3     0.19980    5.27248    0.67405    4.32662
      67      444        3    -0.20822    3.94961    0.57428    4.73816
      68      444        3    -0.20822   17.68444    7.17023    6.25444
      69      444        3     0.09579   12.38629    4.15004   10.49885
      70      444        3     0.09579   12.45310   12.54796   12.19093
      71      444        3     0.09579   19.00792    6.87646    6.62513
      72      444        3     0.19980   17.02396    8.25587    6.81711
      73      444        3     0.19980   14.31964   11.28022   11.30865
      74      444        3     0.09579   12.88696    5.42342   11.06671
      75      444        3    -0.20822   13.25502   11.39274   12.19523
      76      444        3    -0.20822   13.48200    5.48214   12.33928
      77      444        3     0.19980   11.54785    1.89691   10.75610
      78      444        3    -0.20822    6.83738    1.36249   11.26869
      79      444        3     0.19980   13.30582    0.29963    6.21612
      80      444        3    -0.20822   12.21857    3.96507    9.11474
      81      444        3     0.19980    7.91497    1.16804   10.41234
      82      444        3     0.09579   21.67400   12.36926    6.57037
      83      444        3     0.19980   11.70960    2.76643    8.62858
      84      444        3    -0.20822   12.77282    6.63533   10.36631
      85      444        3    -0.20822   12.03758    3.06802   11.32332
      86      444        3    -0.20822   14.60210    0.42555    5.73059
      87      444        3     0.19980   13.22058    7.81752   10.95213
      88      444        3    -0.20822   19.57260    7.70560    7.60795
      89      444        3     0.19980    7.99589    6.27230    0.19414
      90      444        3     0.19980   18.83934    8.76306    8.12964
      91      444        3     0.19980   20.04846   11.95995    8.31999
      92      444        3    -0.20822   21.37175   12.06054    7.90946
      93      444        4    -0.42717   10.68065    0.39452    2.23894
      94      444        4    -0.42717   13.95149   10.89728    3.21872
      95      444        4    -0.42717    7.73408    3.56083    4.91282
      96      444        4    -0.42717    6.32368    0.49522    5.15818
      97      444        4    -0.42829   11.55446    4.74349    0.46542
      98      444        4    -0.42717   14.64135   12.23319   10.40855
      99      444        4    -0.42717   11.36947    1.73071    9.42801
     100      444        4    -0.42717   17.58867    9.06816    7.73379
     101      444        4    -0.42717   18.99765   12.13371    7.48818
     102      444        4    -0.42829   13.76643    7.88418   12.18055
     103      444        5    -0.60256   16.39642   11.13737    5.44400
     104      444        5    -0.62790    7.61384    1.96505    1.97512
     105      444        5    -0.62790   11.14968    2.72434    4.57451
     106      444        5    -0.60256    8.92310    1.48881    7.20323
     107      444        5    -0.62790   17.70891   10.66298   10.67111
     108      444        5    -0.62790   14.17219    9.90224    8.07412
     109      444        1     1.67323   14.82695    1.55654   16.92302
     110      444        1     1.67323   22.29089   11.95763   21.01857
     111      444        2     0.09637   14.06501    6.49540   19.78154
     112      444        2     0.09637   15.21661    4.56334   18.76597
     113      444        2     0.09637   16.27984    2.68661   13.97899
     114      444        2     0.09637   24.04432    2.96400   25.08162
     115      444        2     0.09637   23.47851    8.92925   25.00144
     116      444        2     0.09637   19.92501   12.03233   13.91512
     117      444        2     0.09637   24.93732   10.77471   14.09509
     118      444        2     0.09637   18.76285   12.57843   19.72994
     119      444        2     0.09637   18.72198    8.32810   16.88912
     120      444        2     0.09637   23.03761   11.14646   15.62022
     121      444        2     0.09637   19.65801   10.44545   17.73788
     122      444        2     0.09637   18.89598    6.39342   15.91958
     123      444        2     0.09637   19.06978    9.95313   12.88829
     124      444        2     0.09637   16.49270   12.35351   20.60336
     125      444        2     0.09637   18.07054    4.31743   14.90022
     126      444        2     0.09637   10.64248    5.53462   17.30724
     127      444        2     0.09637   22.75824    6.74687   24.11272
     128      444        2     0.09637   11.96951    3.68145   16.37311
     129      444        2     0.09637   11.42192    1.36409   15.94108
     130      444        2     0.09637    9.06497    1.19303   16.65021
     131      444        2     0.09637   23.05031    7.01352   18.16649
     132      444        2     0.09637   21.89938    8.94701   19.18080
     133      444        2     0.09637   20.83842   10.82749   23.96285
     134      444        2     0.09637   13.07395   10.55011   12.86022
     135      444        2     0.09637   13.63958    4.58479   12.93939
     136      444        2     0.09637   17.19266    1.48200   24.02608
     137      444        2     0.09637   12.18129    2.73962   23.84725
     138      444        2     0.09637   18.35467    0.92785   18.20861
     139      444        2     0.09637   18.39496    5.18652   21.05209
     140      444        2     0.09637   14.08043    2.36779   22.32111
     141      444        2     0.09637   17.45907    3.06907   20.20333
     142      444        2     0.09637   18.22096    7.12125   22.02213
     143      444        2     0.09637   18.04808    3.56114   25.05291
     144      444        2     0.09637   20.62473    1.15114   17.33456
     145      444        2     0.09637   19.04587    9.19709   23.04074
     146      444        2     0.09637   26.48079    7.98788   20.62613
     147      444        2     0.09637   14.35980    6.76704   13.82849
     148      444        2     0.09637   25.15238    9.83943   21.56076
     149      444        2     0.09637   25.69581   12.15993   22.00177
     150      444        2     0.09637   28.05281   12.33371   21.29314
     151      444        3    -0.20822   13.53487    5.89879   19.04345
     152      444        3     0.09579   18.83306    8.92112   14.79512
     153      444        3     0.09579   18.76718    0.52303   13.10393
     154      444        3     0.09579   12.21328    6.19597   18.66884
     155      444        3     0.19980   14.19542    4.81347   18.48027
     156      444        3     0.19980   16.90054    1.79070   13.98607
     157      444        3     0.09579   18.33218    7.64774   14.22738
     158      444        3    -0.20822   17.96482    1.67816   13.09874
     159      444        3    -0.20822   17.73759    7.58877   12.95457
     160      444        3     0.19980   19.67149   11.17426   14.53787
     161      444        3    -0.20822   24.38256   11.70854   14.02541
     162      444        3     0.19980   17.91348   12.76747   19.07583
     163      444        3    -0.20822   19.00034    9.10623   16.17923
     164      444        3     0.19980   23.30528   11.90299   14.88251
     165      444        3     0.09579    9.54549    0.70321   18.72322
     166      444        3     0.19980   19.50932   10.30487   16.66539
     167      444        3    -0.20822   18.44613    6.43595   14.92804
     168      444        3    -0.20822   19.18183   10.00311   13.97064
     169      444        3    -0.20822   16.61729   12.64117   19.56148
     170      444        3     0.19980   17.99827    5.25370   14.34247
     171      444        3    -0.20822   11.65056    5.37028   17.68198
     172      444        3     0.19980   23.22357    6.79856   25.09996
     173      444        3     0.19980   12.38313    4.31232   17.16002
     174      444        3     0.19980   11.17065    1.11728   16.97386
     175      444        3    -0.20822    9.84777    1.01752   17.38540
     176      444        3    -0.20822   23.58260    7.61346   18.90168
     177      444        3     0.09579   18.28445    4.59328   23.14609
     178      444        3     0.09579   18.35127   12.99120   24.83816
     179      444        3     0.09579   24.90609    7.31969   19.27237
     180      444        3     0.19980   22.92213    8.69910   19.46435
     181      444        3     0.19980   20.21780   11.72346   23.95589
     182      444        3     0.09579   18.78513    5.86666   23.71395
     183      444        3    -0.20822   19.15318   11.83598   24.84246
     184      444        3    -0.20822   19.38016    5.92538   24.98651
     185      444        3     0.19980   17.44601    2.34015   23.40333
     186      444        3    -0.20822   12.73555    1.80572   23.91593
     187      444        3     0.19980   19.20398    0.74286   18.86335
     188      444        3    -0.20822   18.11674    4.40831   21.76198
     189      444        3     0.19980   13.81314    1.61127   23.05958
     190      444        3     0.09579   27.57217   12.81250   19.21760
     191      444        3     0.19980   17.60776    3.20967   21.27582
     192      444        3    -0.20822   18.67098    7.07856   23.01355
     193      444        3    -0.20822   17.93575    3.51125   23.97056
     194      444        3    -0.20822   20.50026    0.86879   18.37783
     195      444        3     0.19980   19.11875    8.26075   23.59937
     196      444        3    -0.20822   25.47077    8.14884   20.25518
     197      444        3     0.19980   13.89406    6.71554   12.84137
     198      444        3     0.19980   24.73750    9.20630   20.77688
     199      444        3     0.19980   25.94663   12.40319   20.96722
     200      444        3    -0.20822   27.26992   12.50378   20.55669
     201      444        4    -0.42717   16.57882    0.83776   14.88618
     202      444        4    -0.42717   19.84966   11.34052   15.86596
     203      444        4    -0.42717   13.63224    4.00407   17.56006
     204      444        4    -0.42717   12.22184    0.93846   17.80541
     205      444        4    -0.42829   17.45262    5.18673   13.11266
     206      444        4    -0.42717   20.53951   12.67643   23.05579
     207      444        4    -0.42717   17.26764    2.17394   22.07525
     208      444        4    -0.42717   23.48684    9.51139   20.38102
     209      444        4    -0.42717   24.89582   12.57694   20.13541
     210      444        4    -0.42829   19.66460    8.32742   24.82779
     211      444        5    -0.60256   22.29459   11.58061   18.09124
     212      444        5    -0.62790   13.51201    2.40828   14.62236
     213      444        5    -0.62790   17.04785    3.16758   17.22174
     214      444        5    -0.60256   14.82126    1.93205   19.85047
     215      444        5    -0.62790   23.60707   11.10621   23.31834
     216      444        5    -0.62790   20.07036   10.34548   20.72136
     217      444        1     1.67323   14.90323   13.29846    4.27578
     218      444        1     1.67323   22.36717   23.69955    8.37133
     219      444        2     0.09637   14.14130   18.23731    7.13431
     220      444        2     0.09637   15.29289   16.30526    6.11873
     221      444        2     0.09637   16.35612   14.42853    1.33175
     222      444        2     0.09637   24.12061   14.70592   12.43438
     223      444        2     0.09637   23.55480   20.67116   12.35420
     224      444        2     0.09637   20.00130   23.77425    1.26789
     225      444        2     0.09637   25.01361   22.51663    1.44786
     226      444        2     0.09637   18.83914   24.32034    7.08271
     227      444        2     0.09637   18.79826   20.07002    4.24188
     228      444        2     0.09637   23.11390   22.88838    2.97299
     229      444        2     0.09637   19.73430   22.18736    5.09064
     230      444        2     0.09637   18.97227   18.13534    3.27235
     231      444        2     0.09637   19.14607   21.69504    0.24106
     232      444        2     0.09637   16.56899   24.09543    7.95612
     233      444        2     0.09637   18.14683   16.05935    2.25298
     234      444        2     0.09637   10.71877   17.27653    4.66000
     235      444        2     0.09637   22.83452   18.48879   11.46548
     236      444        2     0.09637   12.04580   15.42337    3.72588
     237      444        2     0.09637   11.49821   13.10600    3.29385
     238      444        2     0.09637    9.14126   12.93494    4.00298
     239      444        2     0.09637   23.12660   18.75544    5.51925
     240      444        2     0.09637   21.97567   20.68893    6.53356
     241      444        2     0.09637   20.91471   22.56940   11.31561
     242      444        2     0.09637   13.15024   22.29202    0.21298
     243      444        2     0.09637   13.71587   16.32671    0.29215
     244      444        2     0.09637   17.26895   13.22391   11.37885
     245      444        2     0.09637   12.25758   14.48154   11.20001
     246      444        2     0.09637   18.43096   12.66977    5.56137
     247      444        2     0.09637   18.47125   16.92843    8.40485
     248      444        2     0.09637   14.15672   14.10970    9.67387
     249      444        2     0.09637   17.53536   14.81098    7.55609
     250      444        2     0.09637   18.29725   18.86317    9.37489
     251      444        2     0.09637   18.12437   15.30306   12.40568
     252      444        2     0.09637   20.70102   12.89305    4.68732
     253      444        2     0.09637   19.12216   20.93900   10.39350
     254      444        2     0.09637   26.55708   19.72980    7.97889
     255      444        2     0.09637   14.43609   18.50896    1.18125
     256      444        2     0.09637   25.22867   21.58135    8.91352
     257      444        2     0.09637   25.77210   23.90184    9.35453
     258      444        2     0.09637   28.12910   24.07563    8.64590
     259      444        3    -0.20822   13.61116   17.64070    6.39621
     260      444        3     0.09579   18.90935   20.66304    2.14788
     261      444        3     0.09579   18.84347   12.26495    0.45669
     262      444        3     0.09579   12.28957   17.93788    6.02160
     263      444        3     0.19980   14.27171   16.55539    5.83303
     264      444        3     0.19980   16.97683   13.53262    1.33884
     265      444        3     0.09579   18.40847   19.38966    1.58015
     266      444        3    -0.20822   18.04111   13.42008    0.45151
     267      444        3    -0.20822   17.81388   19.33068    0.30733
     268      444        3     0.19980   19.74778   22.91617    1.89064
     269      444        3    -0.20822   24.45885   23.45046    1.37817
     270      444        3     0.19980   17.98977   24.50939    6.42859
     271      444        3    -0.20822   19.07663   20.84814    3.53199
     272      444        3     0.19980   23.38157   23.64491    2.23527
     273      444        3     0.09579    9.62178   12.44513    6.07599
     274      444        3     0.19980   19.58561   22.04679    4.01815
     275      444        3    -0.20822   18.52242   18.17787    2.28080
     276      444        3    -0.20822   19.25812   21.74503    1.32341
     277      444        3    -0.20822   16.69358   24.38309    6.91424
     278      444        3     0.19980   18.07456   16.99561    1.69524
     279      444        3    -0.20822   11.72685   17.11220    5.03474
     280      444        3     0.19980   23.29986   18.54047   12.45272
     281      444        3     0.19980   12.45942   16.05423    4.51279
     282      444        3     0.19980   11.24694   12.85920    4.32662
     283      444        3    -0.20822    9.92406   12.75943    4.73816
     284      444        3    -0.20822   23.65889   19.35538    6.25444
     285      444        3     0.09579   18.36074   16.33520   10.49885
     286      444        3     0.09579   18.42756   24.73311   12.19093
     287      444        3     0.09579   24.98238   19.06161    6.62513
     288      444        3     0.19980   22.99842   20.44102    6.81711
     289      444        3     0.19980   20.29409   23.46538   11.30865
     290      444        3     0.09579   18.86142   17.60857   11.06671
     291      444        3    -0.20822   19.22947   23.57789   12.19523
     292      444        3    -0.20822   19.45645   17.66729   12.33928
     293      444        3     0.19980   17.52230   14.08206   10.75610
     294      444        3    -0.20822   12.81184   13.54764   11.26869
     295      444        3     0.19980   19.28027   12.48478    6.21612
     296      444        3    -0.20822   18.19302   16.15023    9.11474
     297      444        3     0.19980   13.88943   13.35319   10.41234
     298      444        3     0.09579   27.64846   24.55441    6.57037
     299      444        3     0.19980   17.68405   14.95158    8.62858
     300      444        3    -0.20822   18.74727   18.82048   10.36631
     301      444        3    -0.20822   18.01204   15.25317   11.32332
     302      444        3    -0.20822   20.57655   12.61071    5.73059
     303      444        3     0.19980   19.19503   20.00267   10.95213
     304      444        3    -0.20822   25.54705   19.89075    7.60795
     305      444        3     0.19980   13.97035   18.45745    0.19414
     306      444        3     0.19980   24.81379   20.94821    8.12964
     307      444        3     0.19980   26.02291   24.14510    8.31999
     308      444        3    -0.20822   27.34620   24.24569    7.90946
     309      444        4    -0.42717   16.65510   12.57968    2.23894
     310      444        4    -0.42717   19.92595   23.08244    3.21872
     311      444        4    -0.42717   13.70853   15.74598    4.91282
     312      444        4    -0.42717   12.29813   12.68038    5.15818
     313      444        4    -0.42829   17.52891   16.92864    0.46542
     314      444        4    -0.42717   20.61580   24.41834   10.40855
     315      444        4    -0.42717   17.34392   13.91586    9.42801
     316      444        4    -0.42717   23.56313   21.25331    7.73379
     317      444        4    -0.42717   24.97211   24.31886    7.48818
     318      444        4    -0.42829   19.74089   20.06933   12.18055
     319      444        5    -0.60256   22.37088   23.32252    5.44400
     320      444        5    -0.62790   13.58830   14.15020    1.97512
     321      444        5    -0.62790   17.12414   14.90949    4.57451
     322      444        5    -0.60256   14.89755   13.67396    7.20323
     323      444        5    -0.62790   23.68336   22.84813   10.67111
     324      444        5    -0.62790   20.14665   22.08739    8.07412
     325      444        1     1.67323   20.80140   13.74169   16.92302
     326      444        1     1.67323   28.26534   24.14278   21.01857
     327      444        2     0.09637   20.03946   18.68055   19.78154
     328      444        2     0.09637   21.19106   16.74850   18.76597
     329      444        2     0.09637   22.25429   14.87176   13.97899
     330      444        2     0.09637   30.01878   15.14915   25.08162
     331      444        2     0.09637   29.45297   21.11440   25.00144
     332      444        2     0.09637   25.89947   24.21749   13.91512
     333      444        2     0.09637   30.91178   22.95986   14.09509
     334      444        2     0.09637   24.73730   24.76358   19.72994
     335      444        2     0.09637   24.69643   20.51326   16.88912
     336      444        2     0.09637   29.01206   23.33161   15.62022
     337      444        2     0.09637   25.63246   22.63060   17.73788
     338      444        2     0.09637   24.87043   18.57858   15.91958
     339      444        2     0.09637   25.04424   22.13828   12.88829
     340      444        2     0.09637   22.46716   24.53867   20.60336
     341      444        2     0.09637   24.04500   16.50258   14.90022
     342      444        2     0.09637   16.61693   17.71977   17.30724
     343      444        2     0.09637   28.73269   18.93203   24.11272
     344      444        2     0.09637   17.94396   15.86661   16.37311
     345      444        2     0.09637   17.39638   13.54924   15.94108
     346      444        2     0.09637   15.03942   13.37818   16.65021
     347      444        2     0.09637   29.02476   19.19867   18.16649
     348      444        2     0.09637   27.87384   21.13217   19.18080
     349      444        2     0.09637   26.81288   23.01264   23.96285
     350      444        2     0.09637   19.04841   22.73526   12.86022
     351      444        2     0.09637   19.61404   16.76994   12.93939
     352      444        2     0.09637   23.16711   13.66715   24.02608
     353      444        2     0.09637   18.15575   14.92477   23.84725
     354      444        2     0.09637   24.32913   13.11301   18.20861
     355      444        2     0.09637   24.36942   17.37167   21.05209
     356      444        2     0.09637   20.05488   14.55294   22.32111
     357      444        2     0.09637   23.43352   15.25422   20.20333
     358      444        2     0.09637   24.19542   19.30640   22.02213
     359      444        2     0.09637   24.02254   15.74629   25.05291
     360      444        2     0.09637   26.59919   13.33629   17.33456
     361      444        2     0.09637   25.02033   21.38224   23.04074
     362      444        2     0.09637   32.45524   20.17304   20.62613
     363      444        2     0.09637   20.33425   18.95219   13.82849
     364      444        2     0.09637   31.12684   22.02458   21.56076
     365      444        2     0.09637   31.67027   24.34508   22.00177
     366      444        2     0.09637   34.02727   24.51886   21.29314
     367      444        3    -0.20822   19.50932   18.08394   19.04345
     368      444        3     0.09579   24.80752   21.10628   14.79512
     369      444        3     0.09579   24.74163   12.70818   13.10393
     370      444        3     0.09579   18.18774   18.38112   18.66884
     371      444        3     0.19980   20.16988   16.99862   18.48027
     372      444        3     0.19980   22.87500   13.97585   13.98607
     373      444        3     0.09579   24.30664   19.83289   14.22738
     374      444        3    -0.20822   23.93928   13.86331   13.09874
     375      444        3    -0.20822   23.71204   19.77392   12.95457
     376      444        3     0.19980   25.64595   23.35941   14.53787
     377      444        3    -0.20822   30.35702   23.89369   14.02541
     378      444        3     0.19980   23.88794   24.95263   19.07583
     379      444        3    -0.20822   24.97479   21.29138   16.17923