Created on Tue Feb 06 15:06:39 2018 

        2048 atoms
        2624 bonds
        6272 angles
        5120 dihedrals
         768 impropers

           7 atom types
          11 bond types
          21 angle types
           7 dihedral types
           1 improper types
           0.000000  29.442000 xlo xhi
           0.000000  40.437248 ylo yhi
           0.000000  26.283977 zlo zhi
          -6.472655   0.033029   0.009933 xy xz yz

Masses

    1   138.905470000 # La3+3
    2    30.973762000 # P_3+3
    3     1.007940000 # H_
    4    12.010700000 # C_3
    5    12.010700000 # C_R
    6    15.999400000 # O_3_z
    7    15.999400000 # O_R

Bond Coeffs

    1      174.315904        2.436167  # La3+3 O_R
    2      205.293959        2.306893  # La3+3 O_3_z
    3      283.417970        1.857945  # P_3+3 C_3
    4      525.874428        1.608032  # P_3+3 O_3_z
    5      850.878848        0.861362  # H_ O_3_z
    6      331.069389        1.109401  # H_ C_3
    7      369.943935        1.486000  # C_3 C_R
    8      720.012703        1.265797  # C_3 O_3_z
    9      646.680887        1.311940  # C_R O_R
   10      523.759376        1.323387  # C_R C_R
   11      391.669513        1.458000  # C_R C_R

Angle Coeffs

    1                      fourier       14.330973        0.343737        0.374972        0.281246 # O_R La3+3 O_3_z
    2                      fourier       12.536185        0.343737        0.374972        0.281246 # O_R La3+3 O_R
    3                      fourier       16.465086        0.343737        0.374972        0.281246 # O_3_z La3+3 O_3_z
    4                      fourier       87.053471        0.253309        0.066566        0.251103 # C_3 P_3+3 O_3_z
    5                      fourier      153.911409        0.253309        0.066566        0.251103 # O_3_z P_3+3 O_3_z
    6                      fourier       84.284614        0.343737        0.374972        0.281246 # P_3+3 C_3 C_R
    7                      fourier       73.868412        0.343737        0.374972        0.281246 # H_ C_3 C_R
    8                      fourier      139.720974        0.343737        0.374972        0.281246 # P_3+3 C_3 O_3_z
    9                      fourier       54.673362        0.343737        0.374972        0.281246 # P_3+3 C_3 H_
   10                      fourier      180.345994        0.343737        0.374972        0.281246 # C_R C_3 O_3_z
   11                      fourier      140.430538        0.343737        0.374972        0.281246 # H_ C_3 O_3_z
   12              cosine/periodic      130.962624              -1               3 # C_3 C_R O_R
   13              cosine/periodic      217.450257              -1               3 # O_R C_R O_R
   14              cosine/periodic      176.874468              -1               3 # C_R C_R O_R
   15              cosine/periodic      137.761490              -1               3 # O_R C_R C_R
   16                      fourier       77.677534        1.898490        2.651251        0.799497 # P_3+3 O_3_z H_
   17                      fourier       34.546688        1.898490        2.651251        0.799497 # P_3+3 O_3_z La3+3
   18                      fourier       37.757042        1.898490        2.651251        0.799497 # C_3 O_3_z La3+3
   19                      fourier       28.204055        1.898490        2.651251        0.799497 # La3+3 O_3_z H_
   20                      fourier      105.399902        1.898490        2.651251        0.799497 # C_3 O_3_z H_
   21              cosine/periodic       51.047321              -1               3 # La3+3 O_R C_R

Dihedral Coeffs

    1        0.070473               1               3 # O_3_z P_3+3 C_3 C_R
    2        0.136931               1               2 # C_3 P_3+3 O_3_z La3+3
    3        0.416667              -1               2 # P_3+3 C_3 C_R O_R
    4        0.085777               1               2 # P_3+3 C_3 O_3_z La3+3
    5        2.245703              -1               2 # C_3 C_R O_R La3+3
    6        2.165197              -1               2 # O_R C_R C_R O_R
    7        0.555556              -1               2 # O_R C_R C_R O_R

Improper Coeffs

    1        2.000000        1.000000       -1.000000        0.000000               0 # C_3 C_R O_R O_R

Pair Coeffs

    1        0.017000        3.137745 # La3+3 La3+3
    2        0.305000        3.694557 # P_3+3 P_3+3
    3        0.044000        2.571134 # H_ H_
    4        0.105000        3.430851 # C_3 C_3
    5        0.105000        3.430851 # C_R C_R
    6        0.060000        3.118146 # O_3_z O_3_z
    7        0.060000        3.118146 # O_R O_R

Atoms

       1      444        1     2.18826    0.69461    2.81191   12.06198
       2      444        1     2.18826   -0.92353   12.92147   12.06198
       3      444        1     2.18826    8.05492    2.81191   12.06198
       4      444        1     2.18826    6.43678   12.92147   12.06198
       5      444        1     2.18826    5.87565    2.25014    5.49072
       6      444        1     2.18826    4.25752   12.35970    5.49177
       7      444        1     2.18826   13.23597    2.25014    5.49072
       8      444        1     2.18826   11.61782   12.35972    5.49072
       9      444        1     2.18826    5.06401    7.30257    1.07988
      10      444        1     2.18826    3.44587   17.41212    1.07988
      11      444        1     2.18826   12.42430    7.30259    1.07988
      12      444        1     2.18826   10.80617   17.41214    1.07988
      13      444        1     2.18826   -0.11704    7.86434    7.65008
      14      444        1     2.18826   -1.73518   17.97389    7.65008
      15      444        1     2.18826    7.24329    7.86434    7.65008
      16      444        1     2.18826    5.62514   17.97391    7.65008
      17      444        2     1.54055    5.66434    0.82491    0.87407
      18      444        2     1.54055    4.04620   10.93446    0.87407
      19      444        2     1.54055   13.02465    0.82493    0.87407
      20      444        2     1.54055   11.40650   10.93448    0.87407
      21      444        2     1.54055    0.89828    4.23214    7.42903
      22      444        2     1.54055   -0.71987   14.34169    7.42903
      23      444        2     1.54055    8.25859    4.23214    7.42903
      24      444        2     1.54055    6.64044   14.34169    7.42903
      25      444        2     1.54055    0.09429    9.28957   12.26778
      26      444        2     1.54055   -1.52386   19.39913   12.26778
      27      444        2     1.54055    7.45459    9.28959   12.26778
      28      444        2     1.54055    5.83645   19.39915   12.26778
      29      444        2     1.54055    4.86035    5.88236    5.71282
      30      444        2     1.54055    3.24220   15.99192    5.71282
      31      444        2     1.54055   12.22064    5.88236    5.71282
      32      444        2     1.54055   10.60251   15.99192    5.71282
      33      444        3     0.41336    3.86922    2.13259    0.76421
      34      444        3     0.41336    2.25108   12.24216    0.76421
      35      444        3     0.41336   11.22953    2.13261    0.76421
      36      444        3     0.41336    9.61139   12.24216    0.76421
      37      444        3     0.41336    3.56127   20.07577    3.50628
      38      444        3     0.41336    5.17946    9.96670    3.50628
      39      444        3     0.41336   10.92152   20.07577    3.50628
      40      444        3     0.41336   12.53972    9.96670    3.50628
      41      444        3     0.19033    0.50286    0.95923    1.87300
      42      444        3     0.19033   -1.11528   11.06879    1.87300
      43      444        3     0.19033    7.86319    0.95923    1.87300
      44      444        3     0.19033    6.24506   11.06879    1.87300
      45      444        3     0.41336    2.69281    2.92435    7.31286
      46      444        3     0.41336    1.07468   13.03391    7.31286
      47      444        3     0.41336   10.05311    2.92435    7.31286
      48      444        3     0.41336    8.43499   13.03391    7.31286
      49      444        3     0.41336   -0.22678    5.20256   10.06926
      50      444        3     0.41336   -1.84491   15.31211   10.06926
      51      444        3     0.41336    7.13354    5.20256   10.06926
      52      444        3     0.41336    5.51541   15.31211   10.06926
      53      444        3     0.19033    6.06500    4.10286    8.43887
      54      444        3     0.19033    4.44686   14.21243    8.43887
      55      444        3     0.19033   13.42532    4.10284    8.43887
      56      444        3     0.19033   11.80718   14.21239    8.43887
      57      444        3     0.41336    1.88939    7.98188   12.37765
      58      444        3     0.41336    0.27126   18.09143   12.37765
      59      444        3     0.41336    9.24970    7.98190   12.37765
      60      444        3     0.41336    7.63157   18.09145   12.37765
      61      444        3     0.41336   -1.03893   10.25735    9.63531
      62      444        3     0.41336    0.60242    0.00364    9.63531
      63      444        3     0.41336    6.32135   10.25735    9.63531
      64      444        3     0.41336    7.96268    0.00364    9.63531
      65      444        3     0.19033    5.25575    9.15527   11.26886
      66      444        3     0.19033    3.63760   19.26482   11.26886
      67      444        3     0.19033   12.61607    9.15527   11.26886
      68      444        3     0.19033   10.99793   19.26482   11.26886
      69      444        3     0.41336    3.06580    7.19015    5.82900
      70      444        3     0.41336    1.44767   17.29970    5.82900
      71      444        3     0.41336   10.42611    7.19015    5.82900
      72      444        3     0.41336    8.80797   17.29970    5.82900
      73      444        3     0.41336    5.98537    4.91192    3.07260
      74      444        3     0.41336    4.36723   15.02150    3.07260
      75      444        3     0.41336   13.34569    4.91194    3.07260
      76      444        3     0.41336   11.72756   15.02150    3.07260
      77      444        3     0.19033   -0.30641    6.01166    4.70220
      78      444        3     0.19033   -1.92453   16.12122    4.70220
      79      444        3     0.19033    7.05392    6.01162    4.70286
      80      444        3     0.19033    5.43578   16.12118    4.70286
      81      444        4    -0.38826    6.88165    1.35349    2.18998
      82      444        4    -0.38826    5.26351   11.46307    2.18998
      83      444        4    -0.38826   14.24196    1.35351    2.18998
      84      444        4    -0.38826   12.62382   11.46307    2.18998
      85      444        5     0.67865    6.93279    2.86611    2.23151
      86      444        5     0.67865    5.31466   12.97566    2.23151
      87      444        5     0.67865   -0.45583    2.86611    2.23151
      88      444        5     0.67865   -2.07403   12.97568    2.23151
      89      444        5     0.67865    2.40737    5.61991   12.90149
      90      444        5     0.67865    0.78923   15.72947   12.90149
      91      444        5     0.67865    9.76768    5.61991   12.90149
      92      444        5     0.67865    8.14954   15.72947   12.90149
      93      444        4    -0.38826   -0.31370    3.70647    8.75296
      94      444        4    -0.38826   -1.93185   13.81604    8.75296
      95      444        4    -0.38826    7.04659    3.70649    8.75296
      96      444        4    -0.38826    5.42846   13.81604    8.75296
      97      444        5     0.67865   14.35184    2.19448    8.79790
      98      444        5     0.67865   12.73370   12.30403    8.79790
      99      444        5     0.67865    6.99112    2.19450    8.79790
     100      444        5     0.67865    5.37297   12.30405    8.79790
     101      444        5     0.67865    2.55058    9.55163    6.33194
     102      444        5     0.67865    0.93244   19.66118    6.33194
     103      444        5     0.67865    9.91089    9.55163    6.33194
     104      444        5     0.67865    8.29276   19.66118    6.33194
     105      444        4    -0.38826   -1.12303    8.76099   10.95188
     106      444        4    -0.38826   -2.74117   18.87054   10.95188
     107      444        4    -0.38826    6.23727    8.76099   10.95188
     108      444        4    -0.38826    4.61913   18.87056   10.95188
     109      444        5     0.67865   13.54681    7.24838   10.91035
     110      444        5     0.67865   11.92868   17.35795   10.91035
     111      444        5     0.67865    6.18613    7.24840   10.91035
     112      444        5     0.67865    4.56799   17.35795   10.91035
     113      444        5     0.67865    3.35124    4.49457    0.23997
     114      444        5     0.67865    1.73310   14.60412    0.23997
     115      444        5     0.67865   10.71153    4.49459    0.23997
     116      444        5     0.67865    9.09340   14.60414    0.23997
     117      444        4    -0.38826    6.07233    6.40801    4.38890
     118      444        4    -0.38826    4.45418   16.51757    4.38890
     119      444        4    -0.38826   13.43262    6.40801    4.38890
     120      444        4    -0.38826   11.81448   16.51757    4.38890
     121      444        5     0.67865    6.12780    7.92000    4.34395
     122      444        5     0.67865    4.50967   18.02956    4.34395
     123      444        5     0.67865   -1.26201    7.92002    4.34395
     124      444        5     0.67865   -2.88021   18.02958    4.34395
     125      444        5     0.67865    3.20803    0.56287    6.80992
     126      444        5     0.67865    1.58989   10.67243    6.80992
     127      444        5     0.67865   10.56834    0.56287    6.80992
     128      444        5     0.67865    8.95021   10.67243    6.80992
     129      444        6    -0.68315    4.26962    1.39727    1.33799
     130      444        6    -0.68315    2.65149   11.50682    1.33799
     131      444        6    -0.68315   11.62992    1.39727    1.33799
     132      444        6    -0.68315   10.01180   11.50682    1.33799
     133      444        6    -0.90268    6.16736    1.46817   12.71869
     134      444        6    -0.90268    4.54923   11.57774   12.71869
     135      444        6    -0.90268   13.52768    1.46819   12.71869
     136      444        6    -0.90268   11.90954   11.57774   12.71869
     137      444        6    -0.90268    4.00173    9.41422    0.91981
     138      444        6    -0.90268    2.38359   19.52377    0.91981
     139      444        6    -0.90268   11.36203    9.41424    0.91981
     140      444        6    -0.90268    9.74389   19.52379    0.91981
     141      444        6    -0.57870    6.54198    0.84831    3.48236
     142      444        6    -0.57870    4.92385   10.95787    3.48236
     143      444        6    -0.57870   13.90227    0.84831    3.48236
     144      444        6    -0.57870   12.28412   10.95789    3.48236
     145      444        7    -0.66192    0.06330    3.49035    1.25085
     146      444        7    -0.66192   -1.55484   13.59990    1.25085
     147      444        7    -0.66192    7.42360    3.49035    1.25085
     148      444        7    -0.66192    5.80547   13.59990    1.25085
     149      444        7    -0.66192    6.41824    3.42334    3.26618
     150      444        7    -0.66192    4.80010   13.53289    3.26618
     151      444        7    -0.66192   13.77856    3.42334    3.26618
     152      444        7    -0.66192   12.16042   13.53289    3.26618
     153      444        7    -0.66192    1.35197    5.27917   12.31365
     154      444        7    -0.66192   -0.26616   15.38872   12.31365
     155      444        7    -0.66192    8.71227    5.27919   12.31365
     156      444        7    -0.66192    7.09415   15.38874   12.31365
     157      444        7    -0.66192    2.76187    6.81618    0.00000
     158      444        7    -0.66192    1.14373   16.92574    0.00000
     159      444        7    -0.66192   10.12217    6.81620    0.00000
     160      444        7    -0.66192    8.50403   16.92576    0.00000
     161      444        6    -0.68315    2.29523    3.66188    7.88624
     162      444        6    -0.68315    0.67711   13.77144    7.88624
     163      444        6    -0.68315    9.65554    3.66188    7.88624
     164      444        6    -0.68315    8.03741   13.77144    7.88624
     165      444        6    -0.90268    0.40777    3.59282    6.13350
     166      444        6    -0.90268   -1.21038   13.70238    6.13350
     167      444        6    -0.90268    7.76808    3.59282    6.13350
     168      444        6    -0.90268    6.14993   13.70238    6.13350
     169      444        6    -0.90268    0.94081    5.75235    7.47188
     170      444        6    -0.90268   -0.67733   15.86193    7.47188
     171      444        6    -0.90268    8.30112    5.75235    7.47188
     172      444        6    -0.90268    6.68299   15.86191    7.47188
     173      444        6    -0.57870    0.03077    4.21210   10.04468
     174      444        6    -0.57870   -1.58738   14.32166   10.04468
     175      444        6    -0.57870    7.39108    4.21210   10.04468
     176      444        6    -0.57870    5.77294   14.32168   10.04468
     177      444        7    -0.66192    6.49148    1.56978    7.82185
     178      444        7    -0.66192    4.87335   11.67933    7.82185
     179      444        7    -0.66192   13.85182    1.56976    7.82185
     180      444        7    -0.66192   12.23369   11.67931    7.82185
     181      444        7    -0.66192    0.14903    1.63730    9.83021
     182      444        7    -0.66192   -1.46911   11.74685    9.83021
     183      444        7    -0.66192    7.50929    1.63730    9.83021
     184      444        7    -0.66192    5.89117   11.74685    9.83021
     185      444        7    -0.66192    3.59830    9.88933    5.72872
     186      444        7    -0.66192    1.98019   19.99889    5.72872
     187      444        7    -0.66192   10.95863    9.88933    5.72872
     188      444        7    -0.66192    9.34048   19.99889    5.72872
     189      444        7    -0.66192    2.18578    8.35196    6.59662
     190      444        7    -0.66192    0.56767   18.46151    6.59662
     191      444        7    -0.66192    9.54610    8.35196    6.59662
     192      444        7    -0.66192    7.92796   18.46151    6.59662
     193      444        6    -0.68315    1.48900    8.71721   11.80387
     194      444        6    -0.68315   -0.12915   18.82677   11.80387
     195      444        6    -0.68315    8.84930    8.71723   11.80387
     196      444        6    -0.68315    7.23117   18.82679   11.80387
     197      444        6    -0.90268   -0.40877    8.64631    0.42317
     198      444        6    -0.90268   -2.02691   18.75587    0.42317
     199      444        6    -0.90268    6.95154    8.64631    0.42317
     200      444        6    -0.90268    5.33341   18.75587    0.42317
     201      444        6    -0.90268    1.75690    0.70026   12.22192
     202      444        6    -0.90268    0.13875   10.80982   12.22192
     203      444        6    -0.90268    9.11721    0.70026   12.22192
     204      444        6    -0.90268    7.49906   10.80982   12.22192
     205      444        6    -0.57870   -0.78335    9.26617    9.65936
     206      444        6    -0.57870   -2.40148   19.37572    9.65936
     207      444        6    -0.57870    6.57694    9.26619    9.65936
     208      444        6    -0.57870    4.95881   19.37574    9.65936
     209      444        7    -0.66192    5.69529    6.62415   11.89087
     210      444        7    -0.66192    4.07716   16.73373   11.89087
     211      444        7    -0.66192   13.05560    6.62415   11.89087
     212      444        7    -0.66192   11.43747   16.73373   11.89087
     213      444        7    -0.66192   -0.65963    6.69116    9.87568
     214      444        7    -0.66192   -2.27777   16.80072    9.87568
     215      444        7    -0.66192    6.70069    6.69116    9.87568
     216      444        7    -0.66192    5.08255   16.80072    9.87568
     217      444        7    -0.66192    4.40663    4.83531    0.82821
     218      444        7    -0.66192    2.78850   14.94487    0.82821
     219      444        7    -0.66192   11.76693    4.83533    0.82821
     220      444        7    -0.66192   10.14881   14.94489    0.82821
     221      444        7    -0.66192    2.99673    3.29829   13.13502
     222      444        7    -0.66192    1.37859   13.40785   13.13502
     223      444        7    -0.66192   10.35704    3.29831   13.13502
     224      444        7    -0.66192    8.73890   13.40787   13.13502
     225      444        6    -0.68315    3.46338    6.45262    5.25561
     226      444        6    -0.68315    1.84523   16.56217    5.25561
     227      444        6    -0.68315   10.82367    6.45262    5.25561
     228      444        6    -0.68315    9.20554   16.56217    5.25561
     229      444        6    -0.90268    5.35084    6.52168    7.00836
     230      444        6    -0.90268    3.73271   16.63123    7.00836
     231      444        6    -0.90268   12.71115    6.52168    7.00836
     232      444        6    -0.90268   11.09302   16.63123    7.00836
     233      444        6    -0.90268    4.81782    4.36213    5.66998
     234      444        6    -0.90268    3.19968   14.47168    5.66998
     235      444        6    -0.90268   12.17813    4.36213    5.66998
     236      444        6    -0.90268   10.55999   14.47168    5.66998
     237      444        6    -0.57870    5.72783    5.90238    3.09717
     238      444        6    -0.57870    4.10969   16.01193    3.09717
     239      444        6    -0.57870   13.08814    5.90240    3.09717
     240      444        6    -0.57870   11.47001   16.01196    3.09717
     241      444        7    -0.66192   -0.73290    8.54474    5.32001
     242      444        7    -0.66192   -2.35104   18.65430    5.32001
     243      444        7    -0.66192    6.62744    8.54472    5.32001
     244      444        7    -0.66192    5.00930   18.65428    5.31988
     245      444        7    -0.66192    5.60964    8.47718    3.31047
     246      444        7    -0.66192    3.99150   18.58674    3.31047
     247      444        7    -0.66192   12.96990    8.47720    3.31165
     248      444        7    -0.66192   11.35176   18.58676    3.31165
     249      444        7    -0.66192    2.16028    0.22517    7.41313
     250      444        7    -0.66192    0.54216   10.33472    7.41313
     251      444        7    -0.66192    9.52061    0.22517    7.41313
     252      444        7    -0.66192    7.90247   10.33472    7.41313
     253      444        7    -0.66192    3.57281    1.76255    6.54524
     254      444        7    -0.66192    1.95468   11.87210    6.54524
     255      444        7    -0.66192   10.93314    1.76255    6.54524
     256      444        7    -0.66192    9.31501   11.87210    6.54524
     257      444        1     2.18826    0.71113    2.81688   25.20397
     258      444        1     2.18826   -0.90701   12.92644   25.20397
     259      444        1     2.18826    8.07144    2.81688   25.20397
     260      444        1     2.18826    6.45329   12.92644   25.20397
     261      444        1     2.18826    5.89216    2.25511   18.63271
     262      444        1     2.18826    4.27403   12.36466   18.63376
     263      444        1     2.18826   13.25248    2.25511   18.63271
     264      444        1     2.18826   11.63434   12.36468   18.63271
     265      444        1     2.18826    5.08053    7.30753   14.22187
     266      444        1     2.18826    3.46238   17.41709   14.22187
     267      444        1     2.18826   12.44082    7.30755   14.22187
     268      444        1     2.18826   10.82269   17.41711   14.22187
     269      444        1     2.18826   -0.10052    7.86930   20.79207
     270      444        1     2.18826   -1.71866   17.97886   20.79207
     271      444        1     2.18826    7.25980    7.86930   20.79207
     272      444        1     2.18826    5.64166   17.97888   20.79207
     273      444        2     1.54055    5.68086    0.82987   14.01606
     274      444        2     1.54055    4.06271   10.93943   14.01606
     275      444        2     1.54055   13.04116    0.82989   14.01606
     276      444        2     1.54055   11.42302   10.93945   14.01606
     277      444        2     1.54055    0.91479    4.23711   20.57102
     278      444        2     1.54055   -0.70335   14.34666   20.57102
     279      444        2     1.54055    8.27510    4.23711   20.57102
     280      444        2     1.54055    6.65696   14.34666   20.57102
     281      444        2     1.54055    0.11080    9.29454   25.40977
     282      444        2     1.54055   -1.50734   19.40410   25.40977
     283      444        2     1.54055    7.47111    9.29456   25.40977
     284      444        2     1.54055    5.85296   19.40412   25.40977
     285      444        2     1.54055    4.87686    5.88733   18.85481
     286      444        2     1.54055    3.25872   15.99688   18.85481
     287      444        2     1.54055   12.23715    5.88733   18.85481
     288      444        2     1.54055   10.61903   15.99688   18.85481
     289      444        3     0.41336    3.88574    2.13755   13.90620
     290      444        3     0.41336    2.26759   12.24713   13.90620
     291      444        3     0.41336   11.24604    2.13757   13.90620
     292      444        3     0.41336    9.62790   12.24713   13.90620
     293      444        3     0.41336    3.57779   20.08074   16.64827
     294      444        3     0.41336    5.19597    9.97167   16.64827
     295      444        3     0.41336   10.93804   20.08074   16.64827
     296      444        3     0.41336   12.55623    9.97167   16.64827
     297      444        3     0.19033    0.51938    0.96420   15.01498
     298      444        3     0.19033   -1.09877   11.07375   15.01498
     299      444        3     0.19033    7.87970    0.96420   15.01498
     300      444        3     0.19033    6.26157   11.07375   15.01498
     301      444        3     0.41336    2.70932    2.92932   20.45485
     302      444        3     0.41336    1.09119   13.03888   20.45485
     303      444        3     0.41336   10.06963    2.92932   20.45485
     304      444        3     0.41336    8.45150   13.03888   20.45485
     305      444        3     0.41336   -0.21027    5.20753   23.21125
     306      444        3     0.41336   -1.82840   15.31708   23.21125
     307      444        3     0.41336    7.15006    5.20753   23.21125
     308      444        3     0.41336    5.53193   15.31708   23.21125
     309      444        3     0.19033    6.08151    4.10783   21.58085
     310      444        3     0.19033    4.46338   14.21740   21.58085
     311      444        3     0.19033   13.44184    4.10780   21.58085
     312      444        3     0.19033   11.82369   14.21736   21.58085
     313      444        3     0.41336    1.90591    7.98684   25.51964
     314      444        3     0.41336    0.28778   18.09640   25.51964
     315      444        3     0.41336    9.26621    7.98686   25.51964
     316      444        3     0.41336    7.64808   18.09642   25.51964
     317      444        3     0.41336   -1.02242   10.26232   22.77730
     318      444        3     0.41336    0.61893    0.00861   22.77730
     319      444        3     0.41336    6.33786   10.26232   22.77730
     320      444        3     0.41336    7.97920    0.00861   22.77730
     321      444        3     0.19033    5.27226    9.16023   24.41085
     322      444        3     0.19033    3.65412   19.26979   24.41085
     323      444        3     0.19033   12.63259    9.16023   24.41085
     324      444        3     0.19033   11.01444   19.26979   24.41085
     325      444        3     0.41336    3.08232    7.19511   18.97099
     326      444        3     0.41336    1.46419   17.30467   18.97099
     327      444        3     0.41336   10.44263    7.19511   18.97099
     328      444        3     0.41336    8.82448   17.30467   18.97099
     329      444        3     0.41336    6.00188    4.91689   16.21459
     330      444        3     0.41336    4.38375   15.02646   16.21459
     331      444        3     0.41336   13.36220    4.91691   16.21459
     332      444        3     0.41336   11.74407   15.02646   16.21459
     333      444        3     0.19033   -0.28989    6.01663   17.84419
     334      444        3     0.19033   -1.90802   16.12618   17.84419
     335      444        3     0.19033    7.07044    6.01659   17.84485
     336      444        3     0.19033    5.45230   16.12614   17.84485
     337      444        4    -0.38826    6.89817    1.35846   15.33197
     338      444        4    -0.38826    5.28002   11.46804   15.33197
     339      444        4    -0.38826   14.25847    1.35848   15.33197
     340      444        4    -0.38826   12.64033   11.46804   15.33197
     341      444        5     0.67865    6.94930    2.87107   15.37350
     342      444        5     0.67865    5.33117   12.98063   15.37350
     343      444        5     0.67865   -0.43931    2.87107   15.37350
     344      444        5     0.67865   -2.05752   12.98065   15.37350
     345      444        5     0.67865    2.42388    5.62488   26.04348
     346      444        5     0.67865    0.80574   15.73443   26.04348
     347      444        5     0.67865    9.78419    5.62488   26.04348
     348      444        5     0.67865    8.16605   15.73443   26.04348
     349      444        4    -0.38826   -0.29718    3.71144   21.89495
     350      444        4    -0.38826   -1.91533   13.82101   21.89495
     351      444        4    -0.38826    7.06311    3.71146   21.89495
     352      444        4    -0.38826    5.44498   13.82101   21.89495