Created on Tue Feb 06 14:46:09 2018 

        2304 atoms
        3072 bonds
        6144 angles
        4608 dihedrals

           3 atom types
           2 bond types
           3 angle types
           1 dihedral types
           0.000000  39.696000 xlo xhi
           0.000000  39.352715 ylo yhi
           0.000000  28.919807 zlo zhi
           5.085884   8.391340   7.414467 xy xz yz

Masses

    1    26.981538600 # Al6+3
    2    30.973762000 # P_3+3
    3    15.999400000 # O_3_z

Bond Coeffs

    1      284.394731        1.688316  # Al6+3 O_3_z
    2      525.874428        1.608032  # P_3+3 O_3_z

Angle Coeffs

    1              cosine/periodic      135.825214               1               4 # O_3_z Al6+3 O_3_z
    2                      fourier      153.911409        0.253309        0.066566        0.251103 # O_3_z P_3+3 O_3_z
    3                      fourier       43.480008        1.898490        2.651251        0.799497 # P_3+3 O_3_z Al6+3

Dihedral Coeffs

    1        0.136931               1               2 # O_3_z P_3+3 O_3_z Al6+3

Pair Coeffs

    1        0.505000        4.008153 # Al6+3 Al6+3
    2        0.305000        3.694557 # P_3+3 P_3+3
    3        0.060000        3.118146 # O_3_z O_3_z

Atoms

       1      444        1     1.96645   10.22803    3.59469    1.81906
       2      444        1     1.96645   11.49956   13.43277    1.81906
       3      444        1     1.96645   20.15208    3.59469    1.81906
       4      444        1     1.96645   21.42362   13.43277    1.81906
       5      444        1     1.96645    2.06154    8.52419    2.43042
       6      444        1     1.96645    3.33306   18.36227    2.43042
       7      444        1     1.96645   11.98558    8.52419    2.43042
       8      444        1     1.96645   13.25712   18.36227    2.43042
       9      444        1     1.96645    3.40224    5.14047    6.06998
      10      444        1     1.96645    4.67378   14.97855    6.06998
      11      444        1     1.96645   13.32630    5.14047    6.06998
      12      444        1     1.96645   14.59784   14.97855    6.06998
      13      444        1     1.96645    8.41473    2.00989    5.40829
      14      444        1     1.96645    9.68625   11.84795    5.40829
      15      444        1     1.96645   18.33879    2.00989    5.40829
      16      444        1     1.96645   19.61031   11.84795    5.40829
      17      444        1     1.96645    4.57849   10.73697    4.79765
      18      444        1     1.96645    5.85003   20.57503    4.79765
      19      444        1     1.96645   14.50255   10.73697    4.79765
      20      444        1     1.96645   15.77409   20.57503    4.79765
      21      444        1     1.96645    7.76384    8.96639    1.16229
      22      444        1     1.96645    9.03538   18.80447    1.16229
      23      444        1     1.96645   17.68790    8.96639    1.16229
      24      444        1     1.96645   18.95944   18.80447    1.16229
      25      444        1     1.96645    5.16368    9.95088   12.64056
      26      444        1     1.96645    6.43520   19.78896   12.64056
      27      444        1     1.96645   15.08774    9.95088   12.64056
      28      444        1     1.96645   16.35925   19.78894   12.64056
      29      444        1     1.96645   13.33012    5.02130   12.02948
      30      444        1     1.96645   14.60166   14.85938   12.02948
      31      444        1     1.96645   23.25418    5.02132   12.02948
      32      444        1     1.96645   24.52572   14.85940   12.02948
      33      444        1     1.96645   11.98932    8.40522    8.38978
      34      444        1     1.96645   13.26083   18.24328    8.38978
      35      444        1     1.96645   21.91337    8.40522    8.38978
      36      444        1     1.96645   23.18489   18.24328    8.38978
      37      444        1     1.96645    6.97685   11.53582    9.05147
      38      444        1     1.96645    8.24838   21.37388    9.05147
      39      444        1     1.96645   16.90091   11.53582    9.05147
      40      444        1     1.96645   18.17244   21.37390    9.05147
      41      444        1     1.96645   10.81318    2.80872    9.66211
      42      444        1     1.96645   12.08472   12.64680    9.66211
      43      444        1     1.96645   20.73724    2.80872    9.66211
      44      444        1     1.96645   22.00878   12.64680    9.66211
      45      444        1     1.96645    7.62781    4.57917   13.29747
      46      444        1     1.96645    8.89935   14.41725   13.29747
      47      444        1     1.96645   17.55187    4.57917   13.29747
      48      444        1     1.96645   18.82341   14.41723   13.29747
      49      444        2     2.08648    4.86175    9.68451    1.82122
      50      444        2     2.08648    6.13327   19.52259    1.82122
      51      444        2     2.08648   14.78581    9.68451    1.82122
      52      444        2     2.08648   16.05735   19.52259    1.82122
      53      444        2     2.08648    9.85571    6.63732    1.12484
      54      444        2     2.08648   11.12723   16.47540    1.12484
      55      444        2     2.08648   19.77977    6.63732    1.12484
      56      444        2     2.08648   21.05129   16.47540    1.12484
      57      444        2     2.08648   11.16601    3.29220    4.77668
      58      444        2     2.08648   12.43755   13.13026    4.77668
      59      444        2     2.08648   21.09007    3.29220    4.77668
      60      444        2     2.08648   22.36161   13.13028    4.77668
      61      444        2     2.08648    3.06603    8.11176    5.40844
      62      444        2     2.08648    4.33755   17.94984    5.40844
      63      444        2     2.08648   12.99007    8.11176    5.40844
      64      444        2     2.08648   14.26160   17.94984    5.40844
      65      444        2     2.08648    5.45319    2.77117    6.09818
      66      444        2     2.08648    6.72470   12.60923    6.09818
      67      444        2     2.08648   15.37725    2.77117    6.09818
      68      444        2     2.08648   16.64876   12.60923    6.09818
      69      444        2     2.08648    8.60148    1.03630    2.45486
      70      444        2     2.08648    9.87299   10.87438    2.45486
      71      444        2     2.08648   18.52553    1.03630    2.45486
      72      444        2     2.08648   19.79705   10.87438    2.45486
      73      444        2     2.08648   10.52991    3.86104   12.63853
      74      444        2     2.08648   11.80145   13.69912   12.63853
      75      444        2     2.08648   20.45397    3.86106   12.63853
      76      444        2     2.08648   21.72551   13.69912   12.63853
      77      444        2     2.08648    5.53609    6.90826   13.33492
      78      444        2     2.08648    6.80760   16.74634   13.33492
      79      444        2     2.08648   15.46013    6.90826   13.33492
      80      444        2     2.08648   16.73166   16.74634   13.33492
      81      444        2     2.08648    4.22556   10.25347    9.68307
      82      444        2     2.08648    5.49708   20.09153    9.68307
      83      444        2     2.08648   14.14962   10.25347    9.68307
      84      444        2     2.08648   15.42114   20.09155    9.68307
      85      444        2     2.08648   12.32563    5.43397    9.05147
      86      444        2     2.08648   13.59715   15.27205    9.05147
      87      444        2     2.08648   22.24969    5.43397    9.05147
      88      444        2     2.08648   23.52121   15.27205    9.05147
      89      444        2     2.08648    9.93844   10.77462    8.36158
      90      444        2     2.08648   11.20998   20.61270    8.36158
      91      444        2     2.08648   19.86250   10.77462    8.36158
      92      444        2     2.08648   21.13404   20.61270    8.36158
      93      444        2     2.08648    6.79018   12.50923   12.00490
      94      444        2     2.08648    8.06170   22.34731   12.00490
      95      444        2     2.08648   16.71424   12.50923   12.00490
      96      444        2     2.08648   17.98576   22.34731   12.00490
      97      444        3    -1.01323    3.67624    8.69646    1.75399
      98      444        3    -1.01323    4.94778   18.53452    1.75399
      99      444        3    -1.01323   13.60030    8.69646    1.75399
     100      444        3    -1.01323   14.87182   18.53454    1.75399
     101      444        3    -1.01323    6.16638    8.86002    1.89425
     102      444        3    -1.01323    7.43792   18.69810    1.89425
     103      444        3    -1.01323   16.09044    8.86002    1.89425
     104      444        3    -1.01323   17.36198   18.69810    1.89425
     105      444        3    -1.01323    4.73485   10.60051    3.05494
     106      444        3    -1.01323    6.00637   20.43859    3.05494
     107      444        3    -1.01323   14.65892   10.60053    3.05494
     108      444        3    -1.01323   15.93045   20.43861    3.05494
     109      444        3    -1.01323    9.57606    5.21528    1.63903
     110      444        3    -1.01323   10.84760   15.05336    1.63903
     111      444        3    -1.01323   19.50014    5.21528    1.63903
     112      444        3    -1.01323   20.77166   15.05336    1.63903
     113      444        3    -1.01323    1.32717    3.46522    3.24437
     114      444        3    -1.01323    2.59871   13.30330    3.24437
     115      444        3    -1.01323   11.25123    3.46522    3.24437
     116      444        3    -1.01323   12.52277   13.30330    3.24437
     117      444        3    -1.01323   11.20311    7.12862    1.70728
     118      444        3    -1.01323   12.47464   16.96670    1.70728
     119      444        3    -1.01323   21.12716    7.12860    1.70728
     120      444        3    -1.01323   22.39870   16.96668    1.70728
     121      444        3    -1.01323   14.11423   10.36122   14.04360
     122      444        3    -1.01323   15.38577   20.19930   14.04360
     123      444        3    -1.01323   24.03829   10.36124   14.04360
     124      444        3    -1.01323   25.30983   20.19932   14.04360
     125      444        3    -1.01323   11.80026    4.51239    5.46179
     126      444        3    -1.01323   13.07178   14.35047    5.46179
     127      444        3    -1.01323   21.72432    4.51241    5.46179
     128      444        3    -1.01323   22.99584   14.35047    5.46179
     129      444        3    -1.01323    3.60627    0.75772    0.58028
     130      444        3    -1.01323    4.87778   10.59580    0.58028
     131      444        3    -1.01323   13.53033    0.75772    0.58028
     132      444        3    -1.01323   14.80184   10.59580    0.58028
     133      444        3    -1.01323    8.70035    7.54322    1.59001
     134      444        3    -1.01323    9.97187   17.38130    1.59001
     135      444        3    -1.01323   18.62439    7.54322    1.59001
     136      444        3    -1.01323   19.89593   17.38130    1.59001
     137      444        3    -1.01323    1.98024    1.99423    5.18431
     138      444        3    -1.01323    3.25178   11.83232    5.18431
     139      444        3    -1.01323   11.90430    1.99423    5.18431
     140      444        3    -1.01323   13.17584   11.83232    5.18431
     141      444        3    -1.01323    9.69868    3.20497    5.24128
     142      444        3    -1.01323   10.97022   13.04305    5.24128
     143      444        3    -1.01323   19.62274    3.20497    5.24128
     144      444        3    -1.01323   20.89428   13.04305    5.24128
     145      444        3    -1.01323    4.20024    9.15824    5.47524
     146      444        3    -1.01323    5.47178   18.99630    5.47524
     147      444        3    -1.01323   14.12430    9.15824    5.47524
     148      444        3    -1.01323   15.39584   18.99630    5.47524
     149      444        3    -1.01323    3.71369    6.71101    5.33932
     150      444        3    -1.01323    4.98523   16.54909    5.33932
     151      444        3    -1.01323   13.63775    6.71101    5.33932
     152      444        3    -1.01323   14.90927   16.54909    5.33932
     153      444        3    -1.01323    2.17652    8.35422    4.17298
     154      444        3    -1.01323    3.44806   18.19230    4.17298
     155      444        3    -1.01323   12.09808    8.35203    4.16445
     156      444        3    -1.01323   13.36962   18.19011    4.16445
     157      444        3    -1.01323    6.89263    2.87225    5.56620
     158      444        3    -1.01323    8.16415   12.71033    5.56620
     159      444        3    -1.01323   16.81669    2.87225    5.56620
     160      444        3    -1.01323   18.08821   12.71033    5.56620
     161      444        3    -1.01323    9.69246   10.80980    3.98761
     162      444        3    -1.01323   10.96397   20.64788    3.98761
     163      444        3    -1.01323   19.61652   10.80980    3.98761
     164      444        3    -1.01323   20.88803   20.64788    3.98761
     165      444        3    -1.01323    4.78995    1.49597    5.52383
     166      444        3    -1.01323    6.06147   11.33405    5.52383
     167      444        3    -1.01323   14.71401    1.49597    5.52383
     168      444        3    -1.01323   15.98553   11.33405    5.52383
     169      444        3    -1.01323    5.44905    2.70993    7.63917
     170      444        3    -1.01323    6.72059   12.54799    7.63917
     171      444        3    -1.01323   15.37311    2.70993    7.63917
     172      444        3    -1.01323   16.64465   12.54801    7.63917
     173      444        3    -1.01323    7.31081    0.56205    1.76931
     174      444        3    -1.01323    8.58234   10.40011    1.76931
     175      444        3    -1.01323   17.23486    0.56203    1.76931
     176      444        3    -1.01323   18.50640   10.40011    1.76931
     177      444        3    -1.01323   12.08168    8.21770    6.64722
     178      444        3    -1.01323   13.35321   18.05578    6.64722
     179      444        3    -1.01323   22.00574    8.21770    6.64722
     180      444        3    -1.01323   23.27727   18.05578    6.64722
     181      444        3    -1.01323    4.69361    4.03053    5.64197
     182      444        3    -1.01323    5.96513   13.86861    5.64197
     183      444        3    -1.01323   14.61767    4.03053    5.64197
     184      444        3    -1.01323   15.88919   13.86861    5.64197
     185      444        3    -1.01323   11.06708    9.97899    2.04434
     186      444        3    -1.01323   12.33862   19.81707    2.04434
     187      444        3    -1.01323   20.99114    9.97899    2.04434
     188      444        3    -1.01323   22.26268   19.81707    2.04434
     189      444        3    -1.01323    8.87263    2.48192    1.99257
     190      444        3    -1.01323   10.14417   12.31998    1.99257
     191      444        3    -1.01323   18.79690    2.48208    1.99330
     192      444        3    -1.01323   20.06843   12.32016    1.99330
     193      444        3    -1.01323   11.71542    4.84911   12.70592
     194      444        3    -1.01323   12.98693   14.68717   12.70592
     195      444        3    -1.01323   21.63948    4.84911   12.70592
     196      444        3    -1.01323   22.91099   14.68719   12.70592
     197      444        3    -1.01323    9.22524    4.68549   12.56537
     198      444        3    -1.01323   10.49678   14.52357   12.56537
     199      444        3    -1.01323   19.14930    4.68549   12.56537
     200      444        3    -1.01323   20.42083   14.52357   12.56537
     201      444        3    -1.01323   10.65697    2.94512   11.40482
     202      444        3    -1.01323   11.92851   12.78320   11.40482
     203      444        3    -1.01323   20.58105    2.94514   11.40482
     204      444        3    -1.01323   21.85257   12.78322   11.40482
     205      444        3    -1.01323    5.81552    8.33023   12.82044
     206      444        3    -1.01323    7.08704   18.16831   12.82044
     207      444        3    -1.01323   15.73958    8.33023   12.82044
     208      444        3    -1.01323   17.01112   18.16831   12.82044
     209      444        3    -1.01323   14.06436   10.08063   11.21553
     210      444        3    -1.01323   15.33590   19.91871   11.21553
     211      444        3    -1.01323   23.98842   10.08063   11.21553
     212      444        3    -1.01323   25.25996   19.91869   11.21553
     213      444        3    -1.01323    4.18865    6.41679   12.75277
     214      444        3    -1.01323    5.46019   16.25487   12.75277
     215      444        3    -1.01323   14.11271    6.41677   12.75277
     216      444        3    -1.01323   15.38424   16.25485   12.75277
     217      444        3    -1.01323    1.27772    3.18457    0.41616
     218      444        3    -1.01323    2.54925   13.02263    0.41616
     219      444        3    -1.01323   11.20178    3.18459    0.41616
     220      444        3    -1.01323   12.47331   13.02265    0.41616
     221      444        3    -1.01323    3.59132    9.03318    8.99811
     222      444        3    -1.01323    4.86284   18.87124    8.99811
     223      444        3    -1.01323   13.51538    9.03318    8.99811
     224      444        3    -1.01323   14.78690   18.87126    8.99811
     225      444        3    -1.01323   11.78527   12.78782   13.87948
     226      444        3    -1.01323   13.05679   22.62590   13.87948
     227      444        3    -1.01323   21.70933   12.78782   13.87948
     228      444        3    -1.01323   22.98085   22.62590   13.87948
     229      444        3    -1.01323    6.69135    6.00230   12.86931
     230      444        3    -1.01323    7.96289   15.84038   12.86931
     231      444        3    -1.01323   16.61553    6.00241   12.86975
     232      444        3    -1.01323   17.88707   15.84049   12.86975
     233      444        3    -1.01323   13.41137   11.55140    9.27531
     234      444        3    -1.01323   14.68289   21.38946    9.27531
     235      444        3    -1.01323   23.33541   11.55138    9.27531
     236      444        3    -1.01323   24.60695   21.38946    9.27531
     237      444        3    -1.01323    5.69291   10.34062    9.21848
     238      444        3    -1.01323    6.96442   20.17870    9.21848
     239      444        3    -1.01323   15.61696   10.34062    9.21848
     240      444        3    -1.01323   16.88850   20.17870    9.21848
     241      444        3    -1.01323   11.19142    4.38751    8.98466
     242      444        3    -1.01323   12.46293   14.22557    8.98466
     243      444        3    -1.01323   21.11527    4.38733    8.98394
     244      444        3    -1.01323   22.38678   14.22539    8.98394
     245      444        3    -1.01323   11.67793    6.83472    9.12058
     246      444        3    -1.01323   12.94945   16.67280    9.12058
     247      444        3    -1.01323   21.60199    6.83472    9.12058
     248      444        3    -1.01323   22.87351   16.67280    9.12058
     249      444        3    -1.01323   13.21510    5.19151   10.28678
     250      444        3    -1.01323   14.48664   15.02959   10.28678
     251      444        3    -1.01323   23.13914    5.19151   10.28678
     252      444        3    -1.01323   24.41068   15.02959   10.28678
     253      444        3    -1.01323    8.49880   10.67339    8.89284
     254      444        3    -1.01323    9.77033   20.51147    8.89284
     255      444        3    -1.01323   18.42285   10.67339    8.89284
     256      444        3    -1.01323   19.69439   20.51147    8.89284
     257      444        3    -1.01323    5.69920    2.73593   10.47215
     258      444        3    -1.01323    6.97074   12.57401   10.47215
     259      444        3    -1.01323   15.62326    2.73593   10.47215
     260      444        3    -1.01323   16.89480   12.57401   10.47215
     261      444        3    -1.01323   10.60174   12.04984    8.93593
     262      444        3    -1.01323   11.87328   21.88792    8.93593
     263      444        3    -1.01323   20.52580   12.04984    8.93593
     264      444        3    -1.01323   21.79732   21.88792    8.93593
     265      444        3    -1.01323    9.94236   10.83567    6.82016
     266      444        3    -1.01323   11.21388   20.67375    6.82016
     267      444        3    -1.01323   19.86642   10.83567    6.82016
     268      444        3    -1.01323   21.13794   20.67375    6.82016
     269      444        3    -1.01323    8.08073   12.98350   12.69059
     270      444        3    -1.01323    9.35227   22.82158   12.69059
     271      444        3    -1.01323   18.00479   12.98350   12.69059
     272      444        3    -1.01323   19.27633   22.82158   12.69059
     273      444        3    -1.01323    3.30996    5.32801    7.81269
     274      444        3    -1.01323    4.58148   15.16609    7.81269
     275      444        3    -1.01323   13.23402    5.32803    7.81269
     276      444        3    -1.01323   14.50554   15.16609    7.81269
     277      444        3    -1.01323   10.69804    9.51526    8.81779
     278      444        3    -1.01323   11.96955   19.35334    8.81779
     279      444        3    -1.01323   20.62209    9.51526    8.81779
     280      444        3    -1.01323   21.89361   19.35334    8.81779
     281      444        3    -1.01323    4.32445    3.56638   12.41542
     282      444        3    -1.01323    5.59597   13.40446   12.41542
     283      444        3    -1.01323   14.24851    3.56638   12.41542
     284      444        3    -1.01323   15.52003   13.40446   12.41542
     285      444        3    -1.01323    6.51899   11.06337   12.46632
     286      444        3    -1.01323    7.79050   20.90143   12.46632
     287      444        3    -1.01323   16.44305   11.06337   12.46632
     288      444        3    -1.01323   17.71456   20.90143   12.46632
     289      444        1     1.96645   14.42370    7.30193   16.27896
     290      444        1     1.96645   15.69523   17.14001   16.27896
     291      444        1     1.96645   24.34775    7.30193   16.27896
     292      444        1     1.96645   25.61929   17.14001   16.27896
     293      444        1     1.96645    6.25721   12.23143   16.89032
     294      444        1     1.96645    7.52873   22.06951   16.89032
     295      444        1     1.96645   16.18125   12.23143   16.89032
     296      444        1     1.96645   17.45279   22.06951   16.89032
     297      444        1     1.96645    7.59791    8.84770   20.52988
     298      444        1     1.96645    8.86945   18.68578   20.52988
     299      444        1     1.96645   17.52197    8.84770   20.52988
     300      444        1     1.96645   18.79351   18.68578   20.52988
     301      444        1     1.96645   12.61040    5.71712   19.86820
     302      444        1     1.96645   13.88192   15.55518   19.86820
     303      444        1     1.96645   22.53446    5.71712   19.86820
     304      444        1     1.96645   23.80598   15.55518   19.86820
     305      444        1     1.96645    8.77416   14.44420   19.25755
     306      444        1     1.96645   10.04570   24.28226   19.25755
     307      444        1     1.96645   18.69822   14.44420   19.25755
     308      444        1     1.96645   19.96976   24.28226   19.25755
     309      444        1     1.96645   11.95951   12.67362   15.62219
     310      444        1     1.96645   13.23105   22.51170   15.62219
     311      444        1     1.96645   21.88357   12.67362   15.62219
     312      444        1     1.96645   23.15511   22.51170   15.62219
     313      444        1     1.96645    9.35935   13.65811   27.10046
     314      444        1     1.96645   10.63087   23.49619   27.10046
     315      444        1     1.96645   19.28341   13.65811   27.10046
     316      444        1     1.96645   20.55492   23.49617   27.10046
     317      444        1     1.96645   17.52579    8.72853   26.48939
     318      444        1     1.96645   18.79733   18.56661   26.48939
     319      444        1     1.96645   27.44985    8.72855   26.48939
     320      444        1     1.96645   28.72139   18.56663   26.48939
     321      444        1     1.96645   16.18499   12.11246   22.84968
     322      444        1     1.96645   17.45650   21.95052   22.84968
     323      444        1     1.96645   26.10904   12.11246   22.84968
     324      444        1     1.96645   27.38056   21.95052   22.84968
     325      444        1     1.96645   11.17252   15.24306   23.51137
     326      444        1     1.96645   12.44405   25.08112   23.51137
     327      444        1     1.96645   21.09658   15.24306   23.51137
     328      444        1     1.96645   22.36811   25.08114   23.51137
     329      444        1     1.96645   15.00885    6.51595   24.12201
     330      444        1     1.96645   16.28039   16.35403   24.12201
     331      444        1     1.96645   24.93291    6.51595   24.12201
     332      444        1     1.96645   26.20445   16.35403   24.12201
     333      444        1     1.96645   11.82348    8.28640   27.75738
     334      444        1     1.96645   13.09502   18.12448   27.75738
     335      444        1     1.96645   21.74754    8.28640   27.75738
     336      444        1     1.96645   23.01908   18.12446   27.75738
     337      444        2     2.08648    9.05742   13.39175   16.28113
     338      444        2     2.08648   10.32894   23.22983   16.28113
     339      444        2     2.08648   18.98148   13.39175   16.28113
     340      444        2     2.08648   20.25302   23.22983   16.28113
     341      444        2     2.08648   14.05138   10.34455   15.58474
     342      444        2     2.08648   15.32290   20.18263   15.58474
     343      444        2     2.08648   23.97544   10.34455   15.58474
     344      444        2     2.08648   25.24696   20.18263   15.58474
     345      444        2     2.08648   15.36168    6.99943   19.23659
     346      444        2     2.08648   16.63322   16.83749   19.23659
     347      444        2     2.08648   25.28574    6.99943   19.23659
     348      444        2     2.08648   26.55728   16.83751   19.23659
     349      444        2     2.08648    7.26170   11.81899   19.86834
     350      444        2     2.08648    8.53322   21.65707   19.86834
     351      444        2     2.08648   17.18574   11.81899   19.86834
     352      444        2     2.08648   18.45727   21.65707   19.86834
     353      444        2     2.08648    9.64886    6.47840   20.55808
     354      444        2     2.08648   10.92037   16.31646   20.55808
     355      444        2     2.08648   19.57292    6.47840   20.55808
     356      444        2     2.08648   20.84443   16.31646   20.55808
     357      444        2     2.08648   12.79715    4.74354   16.91476
     358      444        2     2.08648   14.06866   14.58162   16.91476
     359      444        2     2.08648   22.72120    4.74354   16.91476
     360      444        2     2.08648   23.99272   14.58162   16.91476
     361      444        2     2.08648   14.72558    7.56827   27.09844
     362      444        2     2.08648   15.99712   17.40635   27.09844
     363      444        2     2.08648   24.64964    7.56829   27.09844
     364      444        2     2.08648   25.92118   17.40635   27.09844
     365      444        2     2.08648    9.73176   10.61549   27.79483
     366      444        2     2.08648   11.00327   20.45357   27.79483
     367      444        2     2.08648   19.65580   10.61549   27.79483
     368      444        2     2.08648   20.92733   20.45357   27.79483
     369      444        2     2.08648    8.42123   13.96070   24.14298
     370      444        2     2.08648    9.69275   23.79876   24.14298
     371      444        2     2.08648   18.34529   13.96070   24.14298
     372      444        2     2.08648   19.61681   23.79878   24.14298
     373      444        2     2.08648   16.52130    9.14120   23.51137
     374      444        2     2.08648   17.79282   18.97928   23.51137
     375      444        2     2.08648   26.44536    9.14120   23.51137
     376      444        2     2.08648   27.71688   18.97928   23.51137
     377      444        2     2.08648   14.13411   14.48186   22.82149
     378      444        2     2.08648   15.40565   24.31994   22.82149
     379      444        2     2.08648   24.05817   14.48186   22.82149
     380      444        2     2.08648   25.32971   24.31994   22.82149
     381      444        2     2.08648   10.98585   16.21646   26.46480
     382      444        2     2.08648   12.25737   26.05454   26.46480
     383      444        2     2.08648   20.90991   16.21646   26.46480
     384      444        2     2.08648   22.18143   26.05454   26.46480
     385      444        3    -1.01323    7.87191   12.40370   16.21389
     386      444        3    -1.01323    9.14345   22.24176   16.21389
     387      444        3    -1.01323   17.79597   12.40370   16.21389
     388      444        3    -1.01323   19.06749   22.24178   16.21389
     389      444        3    -1.01323   10.36205   12.56726   16.35415
     390      444        3    -1.01323   11.63359   22.40534   16.35415
     391      444        3    -1.01323   20.28611   12.56726   16.35415
     392      444        3    -1.01323   21.55765   22.40534   16.35415
     393      444        3    -1.01323    8.93052   14.30774   17.51485
     394      444        3    -1.01323   10.20204   24.14582   17.51485
     395      444        3    -1.01323   18.85459   14.30776   17.51485
     396      444        3    -1.01323   20.12612   24.14584   17.51485
     397      444        3    -1.01323   13.77173    8.92252   16.09893
     398      444        3    -1.01323   15.04327   18.76060   16.09893
     399      444        3    -1.01323   23.69581    8.92252   16.09893