Created on Tue Feb 06 15:00:55 2018 

        1632 atoms
        1904 bonds
        3328 angles
        4672 dihedrals
        2880 impropers

           6 atom types
           9 bond types
          16 angle types
           3 dihedral types
           1 improper types
           0.000000  26.376000 xlo xhi
           0.000000  26.399186 ylo yhi
           0.000000  46.678000 zlo zhi
          -0.207343   0.000815  -0.005697 xy xz yz

Masses

    1    65.380000000 # Zn4+2
    2     1.007940000 # H_
    3    12.010700000 # C_R
    4    14.006700000 # N_R
    5    15.999400000 # O_2
    6    15.999400000 # O_R

Bond Coeffs

    1      101.478011        2.216443  # Zn4+2 N_R
    2      104.409475        2.122938  # Zn4+2 O_2
    3      357.440381        1.081418  # H_ C_R
    4      714.557442        1.269010  # C_R O_2
    5      391.669513        1.458000  # C_R C_R
    6      462.655054        1.379256  # C_R C_R
    7      663.718927        1.345073  # C_R N_R
    8      561.491352        1.422196  # C_R N_R
    9      646.680887        1.311940  # C_R O_R

Angle Coeffs

    1       42.809957               1               4 # N_R Zn4+2 O_2
    2       43.207730               1               4 # O_2 Zn4+2 O_2
    3      148.862838              -1               3 # O_2 C_R C_R
    4      256.805977              -1               3 # O_2 C_R O_2
    5      117.010657              -1               3 # C_R C_R C_R
    6      101.626578              -1               3 # C_R C_R C_R
    7       76.817955              -1               3 # H_ C_R C_R
    8      165.695700              -1               3 # N_R C_R C_R
    9      109.704024              -1               3 # H_ C_R N_R
   10      144.106216              -1               3 # C_R C_R N_R
   11      159.232501              -1               3 # C_R C_R O_R
   12      225.881601              -1               3 # N_R C_R O_R
   13       21.958282              -1               3 # Zn4+2 N_R C_R
   14      132.654363              -1               3 # C_R N_R C_R
   15      115.144329              -1               3 # C_R N_R C_R
   16       28.000941              -1               3 # Zn4+2 O_2 C_R

Dihedral Coeffs

    1        2.245703              -1               2 # O_2 C_R O_2 Zn4+2
    2        0.555556              -1               2 # O_2 C_R C_R C_R
    3        1.497136              -1               2 # C_R C_R C_R H_

Improper Coeffs

    1        2.000000        1.000000       -1.000000        0.000000               0 # C_R C_R O_2 O_2

Pair Coeffs

    1        0.124000        2.461553 # Zn4+2 Zn4+2
    2        0.044000        2.571134 # H_ H_
    3        0.105000        3.430851 # C_R C_R
    4        0.069000        3.260689 # N_R N_R
    5        0.060000        3.118146 # O_2 O_2
    6        0.060000        3.118146 # O_R O_R

Atoms

       1      444        1     0.90689    3.30755    4.81036   17.51289
       2      444        1     0.90689    3.60140    4.58162   20.41299
       3      444        1     0.90689    9.77750    8.38606    5.84362
       4      444        1     0.90689    9.48367    8.61433    8.74372
       5      444        2     0.11455    7.92101    5.02593   20.75281
       6      444        2     0.11455    9.88707    4.39991   16.20847
       7      444        2     0.11455    7.41363    4.62427   16.51958
       8      444        2     0.11455   10.22536    4.99370   21.74285
       9      444        2     0.11455   12.69089    4.78379   21.43174
      10      444        2     0.11455   12.17438    4.36540   17.19291
      11      444        2     0.11455    3.68282    0.28442   20.69889
      12      444        2     0.11455    3.32352   11.36520   16.19026
      13      444        2     0.11455    3.58853    0.64468   16.42622
      14      444        2     0.11455    3.45105   11.22382   21.76292
      15      444        2     0.11455    3.28483    8.74773   21.52953
      16      444        2     0.11455    3.17188    9.10922   17.25382
      17      444        2     0.11455    2.54190    2.54632   22.05139
      18      444        2     0.11455    2.26962    1.88058    1.11607
      19      444        2     0.11455    3.22140    3.35397    2.89474
      20      444        2     0.11455    5.04865    6.39846   21.94566
      21      444        2     0.11455    6.04236    7.92211    0.30341
      22      444        2     0.11455    5.70439    7.48114    2.73743
      23      444        2     0.11455    0.71961    5.78156    5.59296
      24      444        2     0.11455    0.29239    5.30486    8.02652
      25      444        2     0.11455    7.27086    4.45489    6.48918
      26      444        2     0.11455    6.86494    4.06996    8.92787
      27      444        2     0.11455    2.00660    2.06027   11.54697
      28      444        2     0.11455    1.50085    1.45721   13.91565
      29      444        2     0.11455    2.17537    2.97163   15.76666
      30      444        2     0.11455    4.16160    6.36273   11.81910
      31      444        2     0.11455    4.86432    7.78343   13.76628
      32      444        2     0.11455    4.37893    6.99695   16.07030
      33      444        2     0.11455    5.16405    8.17006    9.07887
      34      444        2     0.11455    3.19799    8.79668    4.53920
      35      444        2     0.11455    5.67144    8.57232    4.85031
      36      444        2     0.11455    2.85970    8.20213   10.07358
      37      444        2     0.11455    0.39417    8.41204    9.76247
      38      444        2     0.11455    0.91068    8.83100    5.52364
      39      444        2     0.11455    9.40218   12.91184    9.02963
      40      444        2     0.11455    9.76158    1.83081    4.52100
      41      444        2     0.11455    9.49655   12.55135    4.75649
      42      444        2     0.11455    9.63394    1.97249   10.09365
      43      444        2     0.11455    9.80020    4.44856    9.86026
      44      444        2     0.11455    9.91320    4.08686    5.58432
      45      444        2     0.11455   10.54259   10.64955   10.38282
      46      444        2     0.11455   10.81454   11.31771   12.78604
      47      444        2     0.11455    9.86317    9.84367   14.56447
      48      444        2     0.11455    8.03641    6.79702   10.27780
      49      444        2     0.11455    7.04277    5.27574   11.97407
      50      444        2     0.11455    7.38089    5.71611   14.40623
      51      444        2     0.11455   12.36539    7.41497   17.26222
      52      444        2     0.11455   12.79272    7.89099   19.69578
      53      444        2     0.11455    5.81415    8.74123   18.15914
      54      444        2     0.11455    6.22016    9.12535   20.59783
      55      444        2     0.11455   11.07880   11.13439   23.21717
      56      444        2     0.11455   11.58457   11.73965    2.24731
      57      444        2     0.11455   10.91018   10.22475    4.09786
      58      444        2     0.11455    8.92360    6.83477    0.14960
      59      444        2     0.11455    8.22104    5.41350    2.09654
      60      444        2     0.11455    8.70641    6.19948    4.40080
      61      444        3     0.68181    6.05063    4.93249   18.81964
      62      444        3    -0.05681    7.53957    4.85003   18.65860
      63      444        3    -0.08735    8.36885    4.90458   19.76580
      64      444        3    -0.05681    9.77141    4.78511   19.63160
      65      444        3    -0.05681   10.33049    4.59065   18.32111
      66      444        3    -0.08735    9.45683    4.54012   17.20154
      67      444        3    -0.08735    8.09704    4.67212   17.36562
      68      444        3    -0.08735   10.64984    4.84699   20.74744
      69      444        3    -0.08735   12.01068    4.72532   20.58383
      70      444        3    -0.05681   12.56421    4.54865   19.28805
      71      444        3    -0.08735   11.73261    4.48306   18.18271
      72      444        3     0.68181    3.20290    7.29526   19.24394
      73      444        3     0.68181    3.67679    2.09751   18.71274
      74      444        3    -0.05681    3.62824    0.60196   18.58648
      75      444        3    -0.08735    3.51427   13.00748   19.72052
      76      444        3    -0.05681    3.41749   11.59929   19.62717
      77      444        3    -0.05681    3.33460   10.99322   18.32602
      78      444        3    -0.08735    3.36847   11.82999   17.17704
      79      444        3    -0.08735    3.45874   13.19745   17.30190
      80      444        3    -0.08735    3.39295   10.76176   20.77404
      81      444        3    -0.08735    3.30234    9.39397   20.65338
      82      444        3    -0.05681    3.22744    8.79123   19.36834
      83      444        3    -0.08735    3.23263    9.58518   18.23289
      84      444        3     0.68181    0.86476    4.47577   19.11838
      85      444        3     0.19470    2.96405    3.15278   22.85308
      86      444        3    -0.08735    2.80944    2.79207    0.86424
      87      444        3    -0.08735    3.33656    3.60637    1.84121
      88      444        3    -0.05681    4.03370    4.78007    1.47269
      89      444        3     0.18498    4.19136    5.06549    0.00000
      90      444        3    -0.08735    4.93010    6.20148   23.01039
      91      444        3    -0.08735    5.47099    7.04822    0.61848
      92      444        3    -0.08735    5.28648    6.80017    1.99782
      93      444        3     0.18498    4.58260    5.69408    2.41489
      94      444        3     0.44287    5.47767    5.06406    4.60712
      95      444        3     0.44287    3.05162    5.69188    4.30931
      96      444        3    -0.05681    2.82076    5.38624    5.73416
      97      444        3    -0.08735    1.53373    5.48747    6.25369
      98      444        3    -0.08735    1.29601    5.22867    7.61061
      99      444        3    -0.05681    2.34612    4.88490    8.45525
     100      444        3    -0.05681    3.66680    4.78049    7.95253
     101      444        3    -0.05681    3.90477    5.02084    6.56759
     102      444        3    -0.05681    5.21863    4.88689    6.05414
     103      444        3    -0.08735    6.26898    4.55333    6.90158
     104      444        3    -0.08735    6.04031    4.33684    8.26854
     105      444        3    -0.05681    4.75528    4.43742    8.79343
     106      444        3     0.44287    4.52848    4.16106   10.22248
     107      444        3     0.44287    2.06691    4.62059    9.88173
     108      444        3     0.18498    2.92552    3.91765   12.05856
     109      444        3    -0.08735    2.29272    2.73169   12.35567
     110      444        3    -0.08735    2.00922    2.39609   13.69673
     111      444        3    -0.08735    2.37317    3.23441   14.72901
     112      444        3     0.18498    3.03969    4.44994   14.44614
     113      444        3    -0.05681    3.30776    4.81963   13.08664
     114      444        3    -0.08735    3.95318    6.05492   12.84298
     115      444        3    -0.08735    4.33222    6.84454   13.90351
     116      444        3     0.19470    4.06401    6.40509   15.21353
     117      444        3     0.68181    7.03443    8.26372    7.15037
     118      444        3    -0.05681    5.54550    8.34625    6.98933
     119      444        3    -0.08735    4.71621    8.29154    8.09653
     120      444        3    -0.05681    3.31365    8.41101    7.96233
     121      444        3    -0.05681    2.75458    8.60564    6.65185
     122      444        3    -0.08735    3.62822    8.65634    5.53228
     123      444        3    -0.08735    4.98802    8.52435    5.69635
     124      444        3    -0.08735    2.43522    8.34897    9.07817
     125      444        3    -0.08735    1.07438    8.47065    8.91456
     126      444        3    -0.05681    0.52085    8.64748    7.61878
     127      444        3    -0.08735    1.35244    8.71322    6.51345
     128      444        3     0.68181    9.88217    5.90090    7.57444
     129      444        3     0.68181    9.40825   11.09865    7.04348
     130      444        3    -0.05681    9.45679   12.59421    6.91721
     131      444        3    -0.08735    9.57074    0.18872    8.05125
     132      444        3    -0.05681    9.66753    1.59691    7.95790
     133      444        3    -0.05681    9.75046    2.20291    6.65675
     134      444        3    -0.08735    9.71661    1.36608    5.50777
     135      444        3    -0.08735    9.52266   13.19822    5.63263
     136      444        3    -0.08735    9.69207    2.43449    9.10641
     137      444        3    -0.08735    9.78270    3.80227    8.98388
     138      444        3    -0.05681    9.85761    4.40495    7.69884
     139      444        3    -0.08735    9.85243    3.61094    6.56363
     140      444        3     0.68181   12.22030    8.72039    7.44911
     141      444        3     0.19470   10.12056   10.04280   11.18428
     142      444        3    -0.08735   10.27488   10.40616   12.53421
     143      444        3    -0.08735    9.74798    9.59151   13.51095
     144      444        3    -0.05681    9.05105    8.41780   13.14266
     145      444        3     0.18498    8.89321    8.13260   11.74418
     146      444        3    -0.08735    8.15504    6.99375   11.34089
     147      444        3    -0.08735    7.61404    6.14964   12.28798
     148      444        3    -0.08735    7.79863    6.39734   13.66685
     149      444        3     0.18498    8.50237    7.50344   14.08415
     150      444        3     0.44287    7.60734    8.13282   16.27662
     151      444        3     0.44287   10.03338    7.50507   15.97881
     152      444        3    -0.05681   10.26425    7.81025   17.40343
     153      444        3    -0.08735   11.55131    7.70887   17.92202
     154      444        3    -0.08735   11.78909    7.96728   19.28011
     155      444        3    -0.05681   10.73900    8.31078   20.12475
     156      444        3    -0.05681    9.41827    8.41530   19.62203
     157      444        3    -0.05681    9.18026    8.17538   18.23709
     158      444        3    -0.05681    7.86638    8.30948   17.72387
     159      444        3    -0.08735    6.81606    8.64269   18.57131
     160      444        3    -0.08735    7.04479    8.85873   19.93151
     161      444        3    -0.05681    8.32984    8.75807   20.46317
     162      444        3     0.44287    8.55675    9.03409   21.89922
     163      444        3     0.44287   11.01829    8.57472   21.55217
     164      444        3     0.18498   10.15957    9.27986    0.38953
     165      444        3    -0.08735   10.79245   10.46570    0.68617
     166      444        3    -0.08735   11.07611   10.80089    2.02816
     167      444        3    -0.08735   10.71221    9.96228    3.06021
     168      444        3     0.18498   10.04561    8.74687    2.77711
     169      444        3    -0.05681    9.77743    8.37756    1.41761
     170      444        3    -0.08735    9.13204    7.14231    1.17372
     171      444        3    -0.08735    8.75309    6.35239    2.23378
     172      444        3     0.19470    9.02130    6.79154    3.54403
     173      444        4    -0.29468    3.62943    4.23961   22.46659
     174      444        4    -0.17154    4.36907    5.45985    3.82269
     175      444        4    -0.17154    3.19001    4.25157   10.67876
     176      444        4    -0.29468    3.43506    5.26233   15.48356
     177      444        4    -0.29468    9.45538    8.95595   10.79732
     178      444        4    -0.17154    8.71594    7.73728   15.49196
     179      444        4    -0.17154    9.89523    8.94338   22.34849
     180      444        4    -0.29468    9.65026    7.93423    3.81429
     181      444        5    -0.58347    5.59433    4.86674   20.00806
     182      444        5    -0.58347    5.36510    5.04866   17.75421
     183      444        5    -0.58347    3.34844    6.63245   20.32080
     184      444        5    -0.58347    3.06126    6.80645   18.07676
     185      444        5    -0.58347    3.77357    2.58120   19.88669
     186      444        5    -0.58347    3.60448    2.76516   17.62865
     187      444        5    -0.58347    1.55208    4.39713   20.18637
     188      444        5    -0.58347    1.31623    4.51392   17.92575
     189      444        6    -0.46727    2.17719    6.09997    3.55430
     190      444        6    -0.46727    6.57481    4.86965    4.08899
     191      444        6    -0.46727    0.95320    4.69791   10.38305
     192      444        6    -0.46727    5.42812    3.86785   11.01391
     193      444        5    -0.58347    7.49076    8.32923    8.33879
     194      444        5    -0.58347    7.71995    8.14779    6.08494
     195      444        5    -0.58347    9.73667    6.56360    8.65153
     196      444        5    -0.58347   10.02374    6.38985    6.40749
     197      444        5    -0.58347    9.31149   10.61486    8.21743
     198      444        5    -0.58347    9.48057   10.43112    5.95845
     199      444        5    -0.58347   11.53298    8.79880    8.51710
     200      444        5    -0.58347   11.76883    8.68247    6.25649
     201      444        6    -0.46727   10.90780    7.09717   15.22356
     202      444        6    -0.46727    6.51022    8.32739   15.75896
     203      444        6    -0.46727   12.13206    8.49741   22.05255
     204      444        6    -0.46727    7.65718    9.32721   22.68387
     205      444        1     0.90689    3.30796    4.80751   40.85189
     206      444        1     0.90689    3.60181    4.57877   43.75199
     207      444        1     0.90689    9.77791    8.38321   29.18262
     208      444        1     0.90689    9.48408    8.61149   32.08272
     209      444        2     0.11455    7.92142    5.02308   44.09181
     210      444        2     0.11455    9.88748    4.39707   39.54747
     211      444        2     0.11455    7.41404    4.62142   39.85858
     212      444        2     0.11455   10.22577    4.99085   45.08185
     213      444        2     0.11455   12.69130    4.78095   44.77074
     214      444        2     0.11455   12.17479    4.36255   40.53191
     215      444        2     0.11455    3.68323    0.28157   44.03789
     216      444        2     0.11455    3.32392   11.36235   39.52926
     217      444        2     0.11455    3.58894    0.64183   39.76522
     218      444        2     0.11455    3.45145   11.22097   45.10192
     219      444        2     0.11455    3.28524    8.74488   44.86853
     220      444        2     0.11455    3.17229    9.10637   40.59282
     221      444        2     0.11455    2.54230    2.54347   45.39039
     222      444        2     0.11455    2.27003    1.87773   24.45507
     223      444        2     0.11455    3.22180    3.35112   26.23374
     224      444        2     0.11455    5.04906    6.39562   45.28466
     225      444        2     0.11455    6.04277    7.91926   23.64241
     226      444        2     0.11455    5.70480    7.47829   26.07643
     227      444        2     0.11455    0.72002    5.77871   28.93196
     228      444        2     0.11455    0.29279    5.30201   31.36552
     229      444        2     0.11455    7.27127    4.45204   29.82818
     230      444        2     0.11455    6.86535    4.06711   32.26687
     231      444        2     0.11455    2.00701    2.05743   34.88597
     232      444        2     0.11455    1.50126    1.45436   37.25465
     233      444        2     0.11455    2.17578    2.96878   39.10566
     234      444        2     0.11455    4.16201    6.35988   35.15810
     235      444        2     0.11455    4.86473    7.78058   37.10528
     236      444        2     0.11455    4.37934    6.99410   39.40930
     237      444        2     0.11455    5.16445    8.16721   32.41787
     238      444        2     0.11455    3.19840    8.79384   27.87820
     239      444        2     0.11455    5.67185    8.56947   28.18931
     240      444        2     0.11455    2.86010    8.19928   33.41258
     241      444        2     0.11455    0.39458    8.40920   33.10147
     242      444        2     0.11455    0.91109    8.82815   28.86264
     243      444        2     0.11455    9.40259   12.90899   32.36863
     244      444        2     0.11455    9.76198    1.82796   27.86000
     245      444        2     0.11455    9.49695   12.54850   28.09549
     246      444        2     0.11455    9.63435    1.96964   33.43265
     247      444        2     0.11455    9.80061    4.44572   33.19926
     248      444        2     0.11455    9.91360    4.08401   28.92332
     249      444        2     0.11455   10.54300   10.64670   33.72182
     250      444        2     0.11455   10.81495   11.31486   36.12504
     251      444        2     0.11455    9.86358    9.84082   37.90347
     252      444        2     0.11455    8.03682    6.79418   33.61680
     253      444        2     0.11455    7.04318    5.27289   35.31307
     254      444        2     0.11455    7.38129    5.71326   37.74523
     255      444        2     0.11455   12.36580    7.41212   40.60122
     256      444        2     0.11455   12.79313    7.88814   43.03478
     257      444        2     0.11455    5.81456    8.73839   41.49814
     258      444        2     0.11455    6.22057    9.12250   43.93683
     259      444        2     0.11455   11.07921   11.13154   46.55617
     260      444        2     0.11455   11.58497   11.73681   25.58631
     261      444        2     0.11455   10.91059   10.22190   27.43686
     262      444        2     0.11455    8.92401    6.83192   23.48860
     263      444        2     0.11455    8.22145    5.41066   25.43554
     264      444        2     0.11455    8.70681    6.19664   27.73980
     265      444        3     0.68181    6.05104    4.92964   42.15864
     266      444        3    -0.05681    7.53997    4.84718   41.99760
     267      444        3    -0.08735    8.36926    4.90173   43.10480
     268      444        3    -0.05681    9.77182    4.78226   42.97060
     269      444        3    -0.05681   10.33090    4.58781   41.66011
     270      444        3    -0.08735    9.45724    4.53727   40.54054
     271      444        3    -0.08735    8.09745    4.66927   40.70462
     272      444        3    -0.08735   10.65025    4.84414   44.08644
     273      444        3    -0.08735   12.01108    4.72247   43.92283
     274      444        3    -0.05681   12.56462    4.54581   42.62705
     275      444        3    -0.08735   11.73302    4.48021   41.52171
     276      444        3     0.68181    3.20330    7.29241   42.58294
     277      444        3     0.68181    3.67720    2.09466   42.05174
     278      444        3    -0.05681    3.62865    0.59911   41.92548
     279      444        3    -0.08735    3.51468   13.00463   43.05952
     280      444        3    -0.05681    3.41790   11.59645   42.96617
     281      444        3    -0.05681    3.33500   10.99037   41.66502
     282      444        3    -0.08735    3.36887   11.82714   40.51604
     283      444        3    -0.08735    3.45914   13.19461   40.64090
     284      444        3    -0.08735    3.39336   10.75891   44.11304
     285      444        3    -0.08735    3.30275    9.39112   43.99238
     286      444        3    -0.05681    3.22785    8.78838   42.70734
     287      444        3    -0.08735    3.23304    9.58233   41.57189
     288      444        3     0.68181    0.86516    4.47293   42.45737
     289      444        3     0.19470    2.96446    3.14994   46.19208
     290      444        3    -0.08735    2.80985    2.78922   24.20324
     291      444        3    -0.08735    3.33697    3.60352   25.18021
     292      444        3    -0.05681    4.03410    4.77722   24.81169
     293      444        3     0.18498    4.19177    5.06264   23.33900
     294      444        3    -0.08735    4.93051    6.19863   46.34939
     295      444        3    -0.08735    5.47140    7.04537   23.95748
     296      444        3    -0.08735    5.28689    6.79732   25.33682
     297      444        3     0.18498    4.58301    5.69123   25.75389
     298      444        3     0.44287    5.47808    5.06121   27.94612
     299      444        3     0.44287    3.05203    5.68903   27.64831
     300      444        3    -0.05681    2.82117    5.38339   29.07316
     301      444        3    -0.08735    1.53414    5.48462   29.59268
     302      444        3    -0.08735    1.29641    5.22582   30.94961
     303      444        3    -0.05681    2.34653    4.88205   31.79425
     304      444        3    -0.05681    3.66721    4.77764   31.29153
     305      444        3    -0.05681    3.90518    5.01799   29.90659
     306      444        3    -0.05681    5.21903    4.88404   29.39314
     307      444        3    -0.08735    6.26939    4.55049   30.24058
     308      444        3    -0.08735    6.04072    4.33399   31.60754
     309      444        3    -0.05681    4.75569    4.43457   32.13243
     310      444        3     0.44287    4.52889    4.15821   33.56148
     311      444        3     0.44287    2.06732    4.61774   33.22073
     312      444        3     0.18498    2.92593    3.91480   35.39756
     313      444        3    -0.08735    2.29312    2.72884   35.69467
     314      444        3    -0.08735    2.00963    2.39324   37.03573
     315      444        3    -0.08735    2.37358    3.23156   38.06801
     316      444        3     0.18498    3.04009    4.44710   37.78514
     317      444        3    -0.05681    3.30817    4.81679   36.42564
     318      444        3    -0.08735    3.95359    6.05207   36.18198
     319      444        3    -0.08735    4.33263    6.84169   37.24251
     320      444        3     0.19470    4.06441    6.40225   38.55253
     321      444        3     0.68181    7.03484    8.26087   30.48937
     322      444        3    -0.05681    5.54591    8.34340   30.32833
     323      444        3    -0.08735    4.71662    8.28869   31.43553
     324      444        3    -0.05681    3.31406    8.40816   31.30133
     325      444        3    -0.05681    2.75499    8.60279   29.99085
     326      444        3    -0.08735    3.62863    8.65350   28.87128
     327      444        3    -0.08735    4.98843    8.52151   29.03535
     328      444        3    -0.08735    2.43563    8.34612   32.41717
     329      444        3    -0.08735    1.07479    8.46780   32.25356
     330      444        3    -0.05681    0.52126    8.64463   30.95778
     331      444        3    -0.08735    1.35285    8.71037   29.85245
     332      444        3     0.68181    9.88257    5.89806   30.91344
     333      444        3     0.68181    9.40866   11.09580   30.38248
     334      444        3    -0.05681    9.45719   12.59136   30.25621
     335      444        3    -0.08735    9.57115    0.18587   31.39025
     336      444        3    -0.05681    9.66794    1.59406   31.29690
     337      444        3    -0.05681    9.75087    2.20006   29.99575
     338      444        3    -0.08735    9.71701    1.36323   28.84677
     339      444        3    -0.08735    9.52306   13.19537   28.97163
     340      444        3    -0.08735    9.69247    2.43164   32.44541
     341      444        3    -0.08735    9.78310    3.79943   32.32288
     342      444        3    -0.05681    9.85802    4.40210   31.03784
     343      444        3    -0.08735    9.85284    3.60809   29.90263
     344      444        3     0.68181   12.22071    8.71754   30.78811
     345      444        3     0.19470   10.12097   10.03995   34.52328
     346      444        3    -0.08735   10.27529   10.40332   35.87321
     347      444        3    -0.08735    9.74839    9.58866   36.84995
     348      444        3    -0.05681    9.05145    8.41495   36.48166
     349      444        3     0.18498    8.89362    8.12976   35.08318
     350      444        3    -0.08735    8.15545    6.99091   34.67989
     351      444        3    -0.08735    7.61445    6.14679   35.62698
     352      444        3    -0.08735    7.79904    6.39449   37.00585
     353      444        3     0.18498    8.50278    7.50059   37.42315
     354      444        3     0.44287    7.60774    8.12997   39.61562
     355      444        3     0.44287   10.03379    7.50222   39.31781
     356      444        3    -0.05681   10.26466    7.80740   40.74243
     357      444        3    -0.08735   11.55172    7.70602   41.26102
     358      444        3    -0.08735   11.78949    7.96444   42.61911
     359      444        3    -0.05681   10.73940    8.30793   43.46375
     360      444        3    -0.05681    9.41868    8.41245   42.96103
     361      444        3    -0.05681    9.18067    8.17254   41.57609
     362      444        3    -0.05681    7.86679    8.30663   41.06287
     363      444        3    -0.08735    6.81647    8.63984   41.91031
     364      444        3    -0.08735    7.04520    8.85588   43.27051
     365      444        3    -0.05681    8.33025    8.75522   43.80217
     366      444        3     0.44287    8.55715    9.03124   45.23822
     367      444        3     0.44287   11.01869    8.57187   44.89117
     368      444        3     0.18498   10.15998    9.27701   23.72853
     369      444        3    -0.08735   10.79286   10.46285   24.02517
     370      444        3    -0.08735   11.07652   10.79804   25.36716
     371      444        3    -0.08735   10.71262    9.95943   26.39921
     372      444        3     0.18498   10.04601    8.74402   26.11611
     373      444        3    -0.05681    9.77784    8.37471   24.75661
     374      444        3    -0.08735    9.13245    7.13947   24.51272
     375      444        3    -0.08735    8.75350    6.34954   25.57278
     376      444        3     0.19470    9.02171    6.78869   26.88303
     377      444        4    -0.29468    3.62984    4.23676   45.80559