Created on Tue Feb 06 14:27:40 2018 

        3712 atoms
        4096 bonds
        7808 angles
        9856 dihedrals
        3072 impropers

           7 atom types
          14 bond types
          32 angle types
           6 dihedral types
           1 improper types
           0.000000  36.926000 xlo xhi
           0.000000  42.029948 ylo yhi
           0.000000  31.258546 zlo zhi
           0.066021   0.022970  -2.201749 xy xz yz

Masses

    1    65.380000000 # Zn3+2
    2     1.007940000 # H_
    3    12.010700000 # C_R
    4    12.010700000 # C_3
    5    14.006700000 # N_3
    6    14.006700000 # N_R
    7    15.999400000 # O_R

Bond Coeffs

    1      165.837318        1.881712  # Zn3+2 N_R
    2      165.575372        1.882703  # Zn3+2 N_3
    3      160.291409        1.840266  # Zn3+2 O_R
    4      527.945261        1.044419  # H_ N_3
    5      357.440381        1.081418  # H_ C_R
    6      331.069389        1.109401  # H_ C_3
    7      529.459447        1.043423  # H_ N_R
    8      663.718927        1.345073  # C_R N_R
    9      462.655054        1.379256  # C_R C_R
   10      369.943935        1.486000  # C_R C_3
   11      646.680887        1.311940  # C_R O_R
   12      529.724731        1.450075  # C_3 N_R
   13      349.795899        1.514000  # C_3 C_3
   14      528.634538        1.451071  # C_3 N_3

Angle Coeffs

    1                      fourier       53.299639        0.343737        0.374972        0.281246 # N_R Zn3+2 O_R
    2                      fourier       53.228406        0.343737        0.374972        0.281246 # N_3 Zn3+2 O_R
    3                      fourier       55.711139        0.343737        0.374972        0.281246 # N_R Zn3+2 N_3
    4                      fourier       55.784590        0.343737        0.374972        0.281246 # N_R Zn3+2 N_R
    5              cosine/periodic      109.704024              -1               3 # H_ C_R N_R
    6              cosine/periodic      234.844275              -1               3 # N_R C_R N_R
    7              cosine/periodic       76.817955              -1               3 # C_R C_R H_
    8              cosine/periodic      165.695700              -1               3 # C_R C_R N_R
    9              cosine/periodic       96.739224              -1               3 # C_R C_R C_3
   10              cosine/periodic      136.632200              -1               3 # N_R C_R C_3
   11              cosine/periodic      130.962624              -1               3 # C_3 C_R O_R
   12              cosine/periodic      217.450257              -1               3 # O_R C_R O_R
   13                      fourier      145.046652        0.343737        0.374972        0.281246 # N_R C_3 C_R
   14                      fourier      105.679036        0.343737        0.374972        0.281246 # H_ C_3 N_R
   15                      fourier      138.285829        0.343737        0.374972        0.281246 # N_R C_3 C_3
   16                      fourier       73.868412        0.343737        0.374972        0.281246 # H_ C_3 C_R
   17                      fourier       69.847816        0.343737        0.374972        0.281246 # H_ C_3 C_3
   18                      fourier       97.888497        0.343737        0.374972        0.281246 # C_R C_3 C_3
   19                      fourier       61.342703        0.343737        0.374972        0.281246 # H_ C_3 H_
   20                      fourier      138.055467        0.343737        0.374972        0.281246 # N_3 C_3 C_3
   21                      fourier      105.465539        0.343737        0.374972        0.281246 # N_3 C_3 H_
   22              cosine/periodic      225.881601              -1               3 # O_R C_R N_R
   23                      fourier       95.475092        0.317506        0.313225        0.272502 # H_ N_3 C_3
   24                      fourier       88.940331        0.317506        0.313225        0.272502 # H_ N_3 H_
   25                      fourier       27.856467        0.317506        0.313225        0.272502 # H_ N_3 Zn3+2
   26                      fourier       41.637018        0.317506        0.313225        0.272502 # C_3 N_3 Zn3+2
   27              cosine/periodic       36.261492              -1               3 # C_R N_R Zn3+2
   28              cosine/periodic      132.654363              -1               3 # C_R N_R C_R
   29              cosine/periodic       89.115099              -1               3 # H_ N_R C_R
   30              cosine/periodic      109.494736              -1               3 # C_R N_R C_3
   31              cosine/periodic       71.655168              -1               3 # H_ N_R C_3
   32              cosine/periodic       50.430477              -1               3 # Zn3+2 O_R C_R

Dihedral Coeffs

    1        1.497136              -1               2 # H_ C_R N_R Zn3+2
    2        0.083333               1               3 # C_R C_R C_3 H_
    3        2.245703              -1               2 # C_3 C_R O_R Zn3+2
    4        0.416667              -1               2 # C_3 C_3 N_R H_
    5        0.066219               1               3 # H_ C_3 C_3 H_
    6        0.030516               1               3 # H_ C_3 N_3 Zn3+2

Improper Coeffs

    1        2.000000        1.000000       -1.000000        0.000000               0 # N_R C_R H_ N_R

Pair Coeffs

    1        0.124000        2.461553 # Zn3+2 Zn3+2
    2        0.044000        2.571134 # H_ H_
    3        0.105000        3.430851 # C_R C_R
    4        0.105000        3.430851 # C_3 C_3
    5        0.069000        3.260689 # N_3 N_3
    6        0.069000        3.260689 # N_R N_R
    7        0.060000        3.118146 # O_R O_R

Atoms

       1      444        1     0.82244    2.42664    0.42833    4.63252
       2      444        1     0.82244    2.44330   10.93106    4.63314
       3      444        1     0.82244   11.65838    0.42833    4.63252
       4      444        1     0.82244   11.67504   10.93106    4.63314
       5      444        1     0.82244    6.99283    3.70549    2.84203
       6      444        1     0.82244    7.00973   14.21382    2.84437
       7      444        1     0.82244   16.22457    3.70549    2.84203
       8      444        1     0.82244   16.24147   14.21382    2.84437
       9      444        1     0.82244    7.06082    9.01750   11.04146
      10      444        1     0.82244    7.07886   19.52447   11.04349
      11      444        1     0.82244   16.29256    9.01750   11.04146
      12      444        1     0.82244   16.31060   19.52447   11.04349
      13      444        1     0.82244    2.38904    5.70669   12.79084
      14      444        1     0.82244    2.40933   16.21010   12.79084
      15      444        1     0.82244   11.62078    5.70669   12.79084
      16      444        1     0.82244   11.64107   16.21010   12.79084
      17      444        2     0.31454    1.13839    3.49321   12.11175
      18      444        2     0.31454    1.15922   14.00398   12.08799
      19      444        2     0.31454   10.37011    3.49321   12.11175
      20      444        2     0.31454   10.39094   14.00398   12.08799
      21      444        2     0.31454    1.30380    4.48391   10.81577
      22      444        2     0.31454    1.33735   15.00486   10.80248
      23      444        2     0.31454   10.53552    4.48391   10.81577
      24      444        2     0.31454   10.56908   15.00486   10.80248
      25      444        2     0.09830    5.35675    1.58157    4.45169
      26      444        2     0.09830    5.37661   12.08480    4.45684
      27      444        2     0.09830   14.58849    1.58157    4.45169
      28      444        2     0.09830   14.60834   12.08480    4.45684
      29      444        2     0.09830    2.26468    1.79011    1.60200
      30      444        2     0.09830    2.27998   12.29990    1.61372
      31      444        2     0.09830   11.49642    1.79011    1.60200
      32      444        2     0.09830   11.51171   12.29990    1.61372
      33      444        2     0.09830    5.15713    5.49808    1.06154
      34      444        2     0.09830    5.15688   16.01862    1.09202
      35      444        2     0.09830   14.38885    5.49808    1.06154
      36      444        2     0.09830   14.38860   16.01862    1.09202
      37      444        2     0.09830    3.47693    2.19357   15.39608
      38      444        2     0.09830    3.48466   12.71520   15.41375
      39      444        2     0.09830   12.70867    2.19357   15.39608
      40      444        2     0.09830   12.71638   12.71520   15.41375
      41      444        2     0.09830    5.24913    2.32485   15.49064
      42      444        2     0.09830    5.25659   12.85145   15.50658
      43      444        2     0.09830   14.48085    2.32485   15.49064
      44      444        2     0.09830   14.48833   12.85145   15.50658
      45      444        2     0.09830    2.10148    5.67240    4.17880
      46      444        2     0.09830    2.06472   16.18851    4.19146
      47      444        2     0.09830   11.33320    5.67240    4.17880
      48      444        2     0.09830   11.29644   16.18851    4.19146
      49      444        2     0.09830    1.23058    6.57567    2.96565
      50      444        2     0.09830    1.21676   17.09742    2.96487
      51      444        2     0.09830   10.46232    6.57567    2.96565
      52      444        2     0.09830   10.44848   17.09742    2.96487
      53      444        2     0.31454    1.49196    9.09123    3.02583
      54      444        2     0.31454    1.51302   19.61212    3.01692
      55      444        2     0.31454   10.72370    9.09123    3.02583
      56      444        2     0.31454   10.74476   19.61212    3.01692
      57      444        2     0.31454    3.13461    9.05356    3.00066
      58      444        2     0.31454    3.15523   19.55147    3.02114
      59      444        2     0.31454   12.36633    9.05356    3.00066
      60      444        2     0.31454   12.38697   19.55147    3.02114
      61      444        2     0.09830    1.52297    7.82813    5.15188
      62      444        2     0.09830    1.49249   18.35651    5.15031
      63      444        2     0.09830   10.75470    7.82810    5.15188
      64      444        2     0.09830   10.72421   18.35651    5.15031
      65      444        2     0.09830    3.28282    7.76913    4.94698
      66      444        2     0.09830    3.25278   18.27320    4.97167
      67      444        2     0.09830   12.51456    7.76913    4.94698
      68      444        2     0.09830   12.48450   18.27310    4.97308
      69      444        2     0.09830    2.41711    6.86208    9.79799
      70      444        2     0.09830    2.43791   17.36550    9.79815
      71      444        2     0.09830   11.64883    6.86208    9.79799
      72      444        2     0.09830   11.66965   17.36550    9.79815
      73      444        2     0.31454    2.19946    5.10637    1.42727
      74      444        2     0.31454    2.19662   15.62440    1.43477
      75      444        2     0.31454   11.43120    5.10637    1.42727
      76      444        2     0.31454   11.42834   15.62440    1.43477
      77      444        2     0.09830    5.44056   -0.08259    8.59251
      78      444        2     0.09830    5.46218   10.41966    8.58782
      79      444        2     0.09830   14.67230   -0.08259    8.59251
      80      444        2     0.09830   14.69392   10.41966    8.58782
      81      444        2     0.31454    2.53154   -0.26864    9.26363
      82      444        2     0.31454    2.55557   10.24112    9.26722
      83      444        2     0.31454   11.76328   -0.26864    9.26363
      84      444        2     0.31454   11.78731   10.24112    9.26722
      85      444        2     0.09830    3.40425    2.75176   11.92732
      86      444        2     0.09830    3.42274   13.24983   11.90591
      87      444        2     0.09830   12.63599    2.75176   11.92732
      88      444        2     0.09830   12.65446   13.24985   11.90591
      89      444        2     0.09830    3.65761    3.86020   10.57477
      90      444        2     0.09830    3.68729   14.37017   10.56429
      91      444        2     0.09830   12.88935    3.86020   10.57477
      92      444        2     0.09830   12.91903   14.37017   10.56429
      93      444        2     0.09830    5.26639    7.21584   12.86992
      94      444        2     0.09830    5.28291   17.72722   12.87305
      95      444        2     0.09830   14.49813    7.21584   12.86992
      96      444        2     0.09830   14.51465   17.72722   12.87305
      97      444        2     0.09830    1.75269    1.43481   10.56961
      98      444        2     0.09830    1.76419   11.95960   10.53179
      99      444        2     0.09830   10.98443    1.43481   10.56961
     100      444        2     0.09830   10.99593   11.95960   10.53179
     101      444        2     0.09830    1.80381    2.67284    9.30457
     102      444        2     0.09830    1.83372   13.20708    9.27566
     103      444        2     0.09830   11.03553    2.67284    9.30457
     104      444        2     0.09830   11.06544   13.20708    9.27566
     105      444        2     0.09830    3.63790    8.07279    7.89278
     106      444        2     0.09830    3.65834   18.57879    7.89356
     107      444        2     0.09830   12.86964    8.07279    7.89278
     108      444        2     0.09830   12.89008   18.57879    7.89356
     109      444        2     0.09830    5.40526    8.13134    8.00938
     110      444        2     0.09830    5.42530   18.64291    8.01219
     111      444        2     0.09830   14.63700    8.13134    8.00938
     112      444        2     0.09830   14.65702   18.64291    8.01219
     113      444        2     0.31454    5.74954    5.92839    3.51846
     114      444        2     0.31454    5.76532   16.43168    3.54191
     115      444        2     0.31454   14.98128    5.92839    3.51846
     116      444        2     0.31454   14.99704   16.43170    3.54191
     117      444        2     0.31454    5.91273    4.93593    4.81303
     118      444        2     0.31454    5.93899   15.42997    4.82648
     119      444        2     0.31454   15.14447    4.93593    4.81303
     120      444        2     0.31454   15.17073   15.42997    4.82648
     121      444        2     0.09830    0.75557    7.84947   11.20041
     122      444        2     0.09830    0.77270   18.35124   11.19603
     123      444        2     0.09830    9.98730    7.84947   11.20041
     124      444        2     0.09830   10.00444   18.35124   11.19603
     125      444        2     0.09830    6.91029    7.64582   14.06635
     126      444        2     0.09830    6.92665   18.13589   14.06009
     127      444        2     0.09830   16.14203    7.64582   14.06635
     128      444        2     0.09830   16.15839   18.13589   14.06009
     129      444        2     0.09830    0.55476    3.91291   14.57414
     130      444        2     0.09830    0.56890   14.39907   14.56539
     131      444        2     0.09830    9.78650    3.91291   14.57414
     132      444        2     0.09830    9.80062   14.39907   14.56539
     133      444        2     0.09830    8.09484    7.21767    0.25335
     134      444        2     0.09830    8.11558   17.70882    0.24522
     135      444        2     0.09830   17.32658    7.21767    0.25335
     136      444        2     0.09830   17.34730   17.70882    0.24522
     137      444        2     0.09830    0.63434    7.07953    0.15270
     138      444        2     0.09830    0.65479   17.56901    0.14035
     139      444        2     0.09830    9.86608    7.07953    0.15270
     140      444        2     0.09830    9.88653   17.56901    0.14035
     141      444        2     0.09830    6.74727    3.76086   11.44157
     142      444        2     0.09830    6.73428   14.27062   11.43703
     143      444        2     0.09830   15.97901    3.76086   11.44157
     144      444        2     0.09830   15.96602   14.27062   11.43703
     145      444        2     0.09830    5.85521    2.88280   12.65815
     146      444        2     0.09830    5.85700   13.38985   12.66424
     147      444        2     0.09830   15.08693    2.88280   12.65815
     148      444        2     0.09830   15.08872   13.38985   12.66424
     149      444        2     0.31454    6.09643    0.35907   12.63158
     150      444        2     0.31454    6.11361   10.86258   12.63611
     151      444        2     0.31454   15.32817    0.35907   12.63158
     152      444        2     0.31454   15.34535   10.86258   12.63611
     153      444        2     0.31454    7.73963    0.39023   12.65971
     154      444        2     0.31454    7.75671   10.90765   12.64127
     155      444        2     0.31454   16.97137    0.39023   12.65971
     156      444        2     0.31454   16.98845   10.90765   12.64127
     157      444        2     0.09830    6.13443    1.59636   10.49271
     158      444        2     0.09830    6.11216   12.10078   10.49631
     159      444        2     0.09830   15.36615    1.59636   10.49271
     160      444        2     0.09830   15.34390   12.10078   10.49631
     161      444        2     0.09830    7.89560    1.64340   10.69230
     162      444        2     0.09830    7.87443   12.15961   10.66948
     163      444        2     0.09830   17.12732    1.64340   10.69230
     164      444        2     0.09830   17.10617   12.15961   10.66948
     165      444        2     0.09830    6.98653    2.53681    5.83957
     166      444        2     0.09830    7.01101   13.04978    5.84410
     167      444        2     0.09830   16.21825    2.53681    5.83957
     168      444        2     0.09830   16.24273   13.04978    5.84410
     169      444        2     0.31454    6.82950    4.31604   14.21013
     170      444        2     0.31454    6.84242   14.80316   14.21857
     171      444        2     0.31454   16.06124    4.31604   14.21013
     172      444        2     0.31454   16.07414   14.80316   14.21857
     173      444        2     0.09830    0.82385    9.49302    7.04927
     174      444        2     0.09830    0.84336   20.00779    7.05302
     175      444        2     0.09830   10.05559    9.49302    7.04927
     176      444        2     0.09830   10.07508   20.00779    7.05302
     177      444        2     0.31454    7.14467    9.67424    6.38596
     178      444        2     0.31454    7.16616   20.17880    6.38221
     179      444        2     0.31454   16.37641    9.67424    6.38596
     180      444        2     0.31454   16.39790   20.17880    6.38221
     181      444        2     0.09830    8.01503    6.66823    3.70570
     182      444        2     0.09830    8.03069   17.18088    3.72852
     183      444        2     0.09830   17.24675    6.66823    3.70570
     184      444        2     0.09830   17.26242   17.18088    3.72852
     185      444        2     0.09830    8.27031    5.55187    5.05122
     186      444        2     0.09830    8.29352   16.05320    5.06388
     187      444        2     0.09830   17.50205    5.55187    5.05122
     188      444        2     0.09830   17.52526   16.05320    5.06388
     189      444        2     0.09830    0.64826    2.23146    2.80436
     190      444        2     0.09830    0.65600   12.72079    2.79545
     191      444        2     0.09830    9.88000    2.23146    2.80436
     192      444        2     0.09830    9.88774   12.72079    2.79545
     193      444        2     0.09830    6.36667    7.97814    5.07529
     194      444        2     0.09830    6.37619   18.46816    5.11234
     195      444        2     0.09830   15.59841    7.97814    5.07529
     196      444        2     0.09830   15.60793   18.46816    5.11234
     197      444        2     0.09830    6.42097    6.73305    6.33283
     198      444        2     0.09830    6.44676   17.21508    6.36221
     199      444        2     0.09830   15.65271    6.73305    6.33283
     200      444        2     0.09830   15.67850   17.21508    6.36221
     201      444        2     0.09830    8.19748    1.32498    7.75525
     202      444        2     0.09830    8.22669   11.83532    7.75775
     203      444        2     0.09830   17.42922    1.32498    7.75525
     204      444        2     0.09830   17.45843   11.83532    7.75775
     205      444        2     0.09830    0.73434    1.28128    7.65522
     206      444        2     0.09830    0.76277   11.78139    7.64897
     207      444        2     0.09830    9.96608    1.28128    7.65522
     208      444        2     0.09830    9.99451   11.78139    7.64897
     209      444        3     0.25189    4.79205    1.89442    3.57957
     210      444        3     0.25189    4.81015   12.40055    3.58692
     211      444        3     0.25189   14.02378    1.89442    3.57957
     212      444        3     0.25189   14.04189   12.40055    3.58692
     213      444        3    -0.09298    3.20908    1.99305    2.09542
     214      444        3    -0.09298    3.22423   12.50314    2.10589
     215      444        3    -0.09298   12.44082    1.99305    2.09542
     216      444        3    -0.09298   12.45597   12.50314    2.10589
     217      444        3     0.18052    4.24470    2.78917    1.65795
     218      444        3     0.18052    4.25691   13.30387    1.67077
     219      444        3     0.18052   13.47642    2.78917    1.65795
     220      444        3     0.18052   13.48863   13.30387    1.67077
     221      444        3     0.61580    4.05519    4.70991   14.88876
     222      444        3     0.61580    4.06917   15.22543   14.91017
     223      444        3     0.61580   13.28693    4.70991   14.88876
     224      444        3     0.61580   13.30091   15.22543   14.91017
     225      444        4     0.04907    4.21168    5.14376    0.63564
     226      444        4     0.04907    4.21482   15.66309    0.65971
     227      444        4     0.04907   13.44340    5.14376    0.63564
     228      444        4     0.04907   13.44656   15.66309    0.65971
     229      444        4    -0.30643    4.30254    3.60736    0.41089
     230      444        4    -0.30643    4.31024   14.12799    0.42902
     231      444        4    -0.30643   13.53428    3.60736    0.41089
     232      444        4    -0.30643   13.54198   14.12799    0.42902
     233      444        4    -0.30643    2.17537    6.56199    3.53097
     234      444        4    -0.30643    2.15369   17.07592    3.54269
     235      444        4    -0.30643   11.40709    6.56199    3.53097
     236      444        4    -0.30643   11.38541   17.07592    3.54269
     237      444        4     0.12371    2.32779    7.79988    4.40777
     238      444        4     0.12371    2.30722   18.31482    4.41808
     239      444        4     0.12371   11.55951    7.79988    4.40777
     240      444        4     0.12371   11.53896   18.31482    4.41808
     241      444        3     0.18052    4.34211    7.96283    9.85988
     242      444        3     0.18052    4.36044   18.47044    9.86145
     243      444        3     0.18052   13.57385    7.96283    9.85988
     244      444        3     0.18052   13.59218   18.47044    9.86145
     245      444        3    -0.09298    3.31297    7.17476   10.32485
     246      444        3    -0.09298    3.33270   17.68006   10.32579
     247      444        3    -0.09298   12.54469    7.17476   10.32485
     248      444        3    -0.09298   12.56442   17.68004   10.32579
     249      444        3     0.61580    4.27790   -0.17875    6.79701
     250      444        3     0.61580    4.29611   10.32692    6.79483
     251      444        3     0.61580   13.50962   -0.17875    6.79701
     252      444        3     0.61580   13.52785   10.32692    6.79483
     253      444        4     0.04907    4.45848   -0.47616    8.30289
     254      444        4     0.04907    4.47817   10.02941    8.30024
     255      444        4     0.04907   13.69020   -0.47616    8.30289
     256      444        4     0.04907   13.70991   10.02941    8.30024
     257      444        3     0.57738    3.35220    6.35328    2.58446
     258      444        3     0.57738    3.34184   16.85915    2.61243
     259      444        3     0.57738   12.58392    6.35328    2.58446
     260      444        3     0.57738   12.57356   16.85915    2.61243
     261      444        4     0.12371    2.90924    3.22767   11.06849
     262      444        4     0.12371    2.93390   13.73728   11.05005
     263      444        4     0.12371   12.14098    3.22767   11.06849
     264      444        4     0.12371   12.16564   13.73728   11.05005
     265      444        3     0.25189    4.76280    7.37458   11.92514
     266      444        3     0.25189    4.78040   17.88403   11.92764
     267      444        3     0.25189   13.99454    7.37458   11.92514
     268      444        3     0.25189   14.01214   17.88403   11.92764
     269      444        4    -0.30643    2.40622    2.17257   10.08369
     270      444        4    -0.30643    2.42680   12.69445   10.05369
     271      444        4    -0.30643   11.63796    2.17257   10.08369
     272      444        4    -0.30643   11.65852   12.69445   10.05369
     273      444        4    -0.30643    4.47574    8.49414    8.47091
     274      444        4    -0.30643    4.49418   19.00261    8.47279
     275      444        4    -0.30643   13.70748    8.49414    8.47091
     276      444        4    -0.30643   13.72592   19.00259    8.47279
     277      444        3     0.57738    3.57292    1.50742    9.36506
     278      444        3     0.57738    3.58992   12.02314    9.33536
     279      444        3     0.57738   12.80465    1.50742    9.36506
     280      444        3     0.57738   12.82164   12.02314    9.33536
     281      444        3     0.25189    0.19416    7.53616   12.07486
     282      444        3     0.25189    0.21120   18.03493   12.06892
     283      444        3     0.25189    9.42590    7.53616   12.07486
     284      444        3     0.25189    9.44294   18.03493   12.06892
     285      444        3    -0.09298    7.85060    7.43907   13.56762
     286      444        3    -0.09298    7.86711   17.93169   13.56121
     287      444        3    -0.09298   17.08234    7.43907   13.56762
     288      444        3    -0.09298   17.09884   17.93169   13.56121
     289      444        3     0.18052    8.88181    6.63053   13.99258
     290      444        3     0.18052    8.89874   17.12269   13.98398
     291      444        3     0.18052   18.11355    6.63053   13.99258
     292      444        3     0.18052   18.13047   17.12269   13.98398
     293      444        3     0.61580    8.66045    4.69727    0.74520
     294      444        3     0.61580    8.67469   15.19663    0.74161
     295      444        3     0.61580   17.89219    4.69727    0.74520
     296      444        3     0.61580   17.90643   15.19663    0.74161
     297      444        4     0.04907    8.84258    4.26934   15.00176
     298      444        4     0.04907    8.85833   14.75932   14.99347
     299      444        4     0.04907   18.07430    4.26934   15.00176
     300      444        4     0.04907   18.09007   14.75932   14.99347
     301      444        4    -0.30643    8.94011    5.80414   15.23432
     302      444        4    -0.30643    8.95911   16.29492   15.22416
     303      444        4    -0.30643   18.17185    5.80414   15.23432
     304      444        4    -0.30643   18.19083   16.29492   15.22416
     305      444        4    -0.30643    6.80278    2.87606   12.09768
     306      444        4    -0.30643    6.79757   13.38546   12.09206
     307      444        4    -0.30643   16.03452    2.87606   12.09768
     308      444        4    -0.30643   16.02931   13.38546   12.09206
     309      444        4     0.12371    6.94161    1.62806   11.23401
     310      444        4     0.12371    6.92933   12.13793   11.22619
     311      444        4     0.12371   16.17335    1.62806   11.23401
     312      444        4     0.12371   16.16105   12.13793   11.22619
     313      444        3     0.18052    8.92138    1.45296    5.79596
     314      444        3     0.18052    8.94122   11.95787    5.79471
     315      444        3     0.18052   18.15312    1.45296    5.79596
     316      444        3     0.18052   18.17296   11.95787    5.79471
     317      444        3    -0.09298    7.89127    2.23469    5.32208
     318      444        3    -0.09298    7.91221   12.74263    5.32333
     319      444        3    -0.09298   17.12299    2.23469    5.32208
     320      444        3    -0.09298   17.14395   12.74263    5.32333
     321      444        3     0.61580    8.90664    9.58530    8.85336
     322      444        3     0.61580    8.92343   20.09384    8.85523
     323      444        3     0.61580   18.13838    9.58530    8.85336
     324      444        3     0.61580   18.15517   20.09384    8.85523
     325      444        4     0.04907   18.30496    9.88235    7.34545
     326      444        4     0.04907   18.32201   20.39201    7.34779
     327      444        4     0.04907    9.07370    9.88235    7.34545
     328      444        4     0.04907    9.09075   20.39201    7.34779
     329      444        3     0.57738    7.97851    3.07287   13.04732
     330      444        3     0.57738    7.98554   13.58090   13.02731
     331      444        3     0.57738   17.21023    3.07287   13.04732
     332      444        3     0.57738   17.21728   13.58090   13.02731
     333      444        4     0.12371    7.52146    6.18789    4.56281
     334      444        4     0.12371    7.54132   16.69090    4.58250
     335      444        4     0.12371   16.75319    6.18789    4.56281
     336      444        4     0.12371   16.77306   16.69090    4.58250
     337      444        3     0.25189    0.13331    2.06027    3.74040