Created on Tue Feb 06 15:03:43 2018 

        1920 atoms
        2400 bonds
        4440 angles
        5280 dihedrals
        3600 impropers

           4 atom types
           6 bond types
          13 angle types
           3 dihedral types
           1 improper types
           0.000000  28.614999 xlo xhi
           0.000000  31.663150 ylo yhi
           0.000000  32.529991 zlo zhi
           1.351992   0.017598   0.016296 xy xz yz

Masses

    1    63.546000000 # Cu3+1
    2     1.007940000 # H_
    3    12.010700000 # C_R
    4    14.006700000 # N_R

Bond Coeffs

    1      193.572810        1.971536  # Cu3+1 N_R
    2      357.440381        1.081418  # H_ C_R
    3      663.718927        1.345073  # C_R N_R
    4      391.669513        1.458000  # C_R C_R
    5      462.655054        1.379256  # C_R C_R
    6      929.109299        1.322497  # N_R N_R

Angle Coeffs

    1                      fourier       44.183127        0.343737        0.374972        0.281246 # N_R Cu3+1 N_R
    2              cosine/periodic      143.630586              -1               3 # N_R C_R C_R
    3              cosine/periodic      234.844275              -1               3 # N_R C_R N_R
    4              cosine/periodic      101.626578              -1               3 # C_R C_R C_R
    5              cosine/periodic      117.010657              -1               3 # C_R C_R C_R
    6              cosine/periodic       76.817955              -1               3 # H_ C_R C_R
    7              cosine/periodic      109.704024              -1               3 # N_R C_R H_
    8              cosine/periodic      165.695700              -1               3 # N_R C_R C_R
    9              cosine/periodic      184.094783              -1               3 # C_R N_R N_R
   10              cosine/periodic       42.346368              -1               3 # Cu3+1 N_R C_R
   11              cosine/periodic       58.253604              -1               3 # Cu3+1 N_R N_R
   12              cosine/periodic      255.585151              -1               3 # N_R N_R N_R
   13              cosine/periodic      132.654363              -1               3 # C_R N_R C_R

Dihedral Coeffs

    1        2.245703              -1               2 # N_R C_R N_R N_R
    2        1.497136              -1               2 # N_R C_R N_R Cu3+1
    3        0.555556              -1               2 # N_R C_R C_R C_R

Improper Coeffs

    1        2.000000        1.000000       -1.000000        0.000000               0 # N_R C_R N_R C_R

Pair Coeffs

    1        0.005000        3.113691 # Cu3+1 Cu3+1
    2        0.044000        2.571134 # H_ H_
    3        0.105000        3.430851 # C_R C_R
    4        0.069000        3.260689 # N_R N_R

Atoms

       1      444        1     0.22131    1.64968    5.22845    9.26010
       2      444        1     0.22109    4.30326    0.05545    1.12640
       3      444        1     0.22126    4.53296    5.33400    7.00579
       4      444        1     0.22076    1.87933   10.50704   15.13952
       5      444        2     0.13389    1.56297    2.27102   10.55608
       6      444        2     0.08665    0.57011    0.88823   12.37841
       7      444        2     0.13745    4.61809    3.49240   13.35067
       8      444        2     0.07546    3.48031    2.09004   15.07583
       9      444        2     0.13409    4.38550    3.02684    2.41558
      10      444        2     0.08653    5.38101    4.40657    4.23889
      11      444        2     0.13800    1.33092    1.80566    5.21078
      12      444        2     0.07555    2.47207    3.20378    6.93713
      13      444        2     0.13379    4.61962    8.29172    5.71017
      14      444        2     0.08667    5.61246    9.67455    3.88784
      15      444        2     0.13752    1.56470    7.07007    2.91547
      16      444        2     0.07587    2.70248    8.47243    1.19032
      17      444        2     0.13432    1.79714    7.53534   13.85065
      18      444        2     0.08640    0.80165    6.15562   12.02730
      19      444        2     0.13791    4.85168    8.75662   11.05548
      20      444        2     0.07539    3.71055    7.35855    9.32908
      21      444        3     0.28919    3.90271    3.72186   10.75812
      22      444        3     0.06928    3.18704    2.99419   11.79952
      23      444        3    -0.18447    2.02074    2.25838   11.54221
      24      444        3     0.11437    1.46114    1.49150   12.55658
      25      444        3    -0.19317    3.71280    2.94047   13.10339
      26      444        3     0.11464    3.08590    2.15969   14.06127
      27      444        3     0.28915    2.04804    1.57145    2.62001
      28      444        3     0.06902    2.76291    2.30203    3.66003
      29      444        3    -0.18470    3.92855    3.03858    3.40213
      30      444        3     0.11484    4.48991    3.80344    4.41717
      31      444        3    -0.19439    2.23693    2.35658    4.96375
      32      444        3     0.11600    2.86580    3.13496    5.92228
      33      444        3     0.28866    2.28000    6.84067    5.50799
      34      444        3     0.06952    2.99567    7.56840    4.46664
      35      444        3    -0.18401    4.16189    8.30430    4.72401
      36      444        3     0.11427    4.72149    9.07120    3.70964
      37      444        3    -0.19363    2.46996    7.62206    3.16276
      38      444        3     0.11428    3.09685    8.40284    2.20488
      39      444        3     0.28898    4.13457    8.99085   13.64617
      40      444        3     0.06894    3.41969    8.26020   12.60618
      41      444        3    -0.18473    2.25408    7.52363   12.86410
      42      444        3     0.11487    1.69273    6.75880   11.84903
      43      444        3    -0.19377    3.94568    8.20568   11.30246
      44      444        3     0.11565    3.31681    7.42734   10.34392
      45      444        4    -0.26486    3.40458    4.13875    9.56354
      46      444        4    -0.02509    4.47116    4.64794    8.90081
      47      444        4     0.00688    5.55879    4.54596    9.68945
      48      444        4    -0.33234    5.22105    3.98465   10.85885
      49      444        4    -0.24912    1.97944    1.42008   13.80435
      50      444        4    -0.26405    2.54806    1.14549    1.42950
      51      444        4    -0.02595    1.48178    0.63297    0.76857
      52      444        4     0.00819    0.39230    0.74381    1.55321
      53      444        4    -0.33301    0.72888    1.31211    2.71954
      54      444        4    -0.25024    3.97366    3.87267    5.66589
      55      444        4    -0.26445    2.77810    6.42372    6.70256
      56      444        4    -0.02529    1.71151    5.91446    7.36523
      57      444        4     0.00701    0.62389    6.01646    6.57657
      58      444        4    -0.33228    0.96166    6.57786    5.40722
      59      444        4    -0.24915    4.20326    9.14251    2.46184
      60      444        4    -0.26360    3.63452    9.41696   14.83664
      61      444        4    -0.02676    4.70081    9.92954   15.49750
      62      444        4     0.00842    5.79030    9.81862   14.71286
      63      444        4    -0.33292    5.45372    9.25019   13.54661
      64      444        4    -0.25012    2.20895    6.68961   10.60029
      65      444        1     0.22131    1.65848    5.23659   25.52510
      66      444        1     0.22109    4.31206    0.06359   17.39140
      67      444        1     0.22126    4.54176    5.34215   23.27078
      68      444        1     0.22076    1.88813   10.51519   31.40452
      69      444        2     0.13389    1.57176    2.27917   26.82108
      70      444        2     0.08665    0.57891    0.89638   28.64341
      71      444        2     0.13745    4.62689    3.50055   29.61566
      72      444        2     0.07546    3.48911    2.09819   31.34082
      73      444        2     0.13409    4.39430    3.03498   18.68058
      74      444        2     0.08653    5.38981    4.41472   20.50388
      75      444        2     0.13800    1.33972    1.81381   21.47578
      76      444        2     0.07555    2.48087    3.21192   23.20213
      77      444        2     0.13379    4.62842    8.29987   21.97516
      78      444        2     0.08667    5.62126    9.68270   20.15283
      79      444        2     0.13752    1.57350    7.07822   19.18046
      80      444        2     0.07587    2.71128    8.48058   17.45532
      81      444        2     0.13432    1.80594    7.54349   30.11565
      82      444        2     0.08640    0.81045    6.16377   28.29229
      83      444        2     0.13791    4.86048    8.76477   27.32048
      84      444        2     0.07539    3.71935    7.36669   25.59408
      85      444        3     0.28919    3.91150    3.73001   27.02312
      86      444        3     0.06928    3.19584    3.00234   28.06452
      87      444        3    -0.18447    2.02954    2.26653   27.80721
      88      444        3     0.11437    1.46994    1.49965   28.82157
      89      444        3    -0.19317    3.72160    2.94862   29.36839
      90      444        3     0.11464    3.09470    2.16784   30.32626
      91      444        3     0.28915    2.05683    1.57959   18.88501
      92      444        3     0.06902    2.77171    2.31018   19.92503
      93      444        3    -0.18470    3.93735    3.04673   19.66713
      94      444        3     0.11484    4.49871    3.81159   20.68216
      95      444        3    -0.19439    2.24573    2.36473   21.22875
      96      444        3     0.11600    2.87460    3.14311   22.18728
      97      444        3     0.28866    2.28880    6.84882   21.77299
      98      444        3     0.06952    3.00446    7.57655   20.73164
      99      444        3    -0.18401    4.17069    8.31244   20.98900
     100      444        3     0.11427    4.73029    9.07935   19.97463
     101      444        3    -0.19363    2.47876    7.63021   19.42776
     102      444        3     0.11428    3.10565    8.41098   18.46988
     103      444        3     0.28898    4.14337    8.99900   29.91116
     104      444        3     0.06894    3.42848    8.26835   28.87118
     105      444        3    -0.18473    2.26288    7.53178   29.12909
     106      444        3     0.11487    1.70153    6.76695   28.11403
     107      444        3    -0.19377    3.95448    8.21383   27.56746
     108      444        3     0.11565    3.32561    7.43549   26.60891
     109      444        4    -0.26486    3.41337    4.14690   25.82854
     110      444        4    -0.02509    4.47996    4.65609   25.16580
     111      444        4     0.00688    5.56759    4.55411   25.95444
     112      444        4    -0.33234    5.22985    3.99280   27.12385
     113      444        4    -0.24912    1.98824    1.42823   30.06934
     114      444        4    -0.26405    2.55686    1.15363   17.69449
     115      444        4    -0.02595    1.49058    0.64112   17.03357
     116      444        4     0.00819    0.40110    0.75195   17.81821
     117      444        4    -0.33301    0.73768    1.32026   18.98454
     118      444        4    -0.25024    3.98246    3.88081   21.93089
     119      444        4    -0.26445    2.78690    6.43186   22.96756
     120      444        4    -0.02529    1.72031    5.92261   23.63022
     121      444        4     0.00701    0.63269    6.02461   22.84157
     122      444        4    -0.33228    0.97046    6.58601   21.67221
     123      444        4    -0.24915    4.21205    9.15066   18.72683
     124      444        4    -0.26360    3.64332    9.42511   31.10163
     125      444        4    -0.02676    4.70961    9.93769   31.76249
     126      444        4     0.00842    5.79910    9.82677   30.97786
     127      444        4    -0.33292    5.46252    9.25834   29.81161
     128      444        4    -0.25012    2.21775    6.69776   26.86528
     129      444        1     0.22131    2.10034   15.78283    9.26010
     130      444        1     0.22109    4.75392   10.60983    1.12640
     131      444        1     0.22126    4.98363   15.88838    7.00579
     132      444        1     0.22076    2.32999   21.06143   15.13952
     133      444        2     0.13389    2.01363   12.82540   10.55608
     134      444        2     0.08665    1.02077   11.44261   12.37841
     135      444        2     0.13745    5.06875   14.04678   13.35067
     136      444        2     0.07546    3.93097   12.64442   15.07583
     137      444        2     0.13409    4.83617   13.58122    2.41558
     138      444        2     0.08653    5.83167   14.96096    4.23889
     139      444        2     0.13800    1.78159   12.36004    5.21078
     140      444        2     0.07555    2.92273   13.75816    6.93713
     141      444        2     0.13379    5.07029   18.84611    5.71017
     142      444        2     0.08667    6.06312   20.22894    3.88784
     143      444        2     0.13752    2.01537   17.62445    2.91547
     144      444        2     0.07587    3.15315   19.02681    1.19032
     145      444        2     0.13432    2.24780   18.08972   13.85065
     146      444        2     0.08640    1.25231   16.71000   12.02730
     147      444        2     0.13791    5.30234   19.31100   11.05548
     148      444        2     0.07539    4.16121   17.91293    9.32908
     149      444        3     0.28919    4.35337   14.27625   10.75812
     150      444        3     0.06928    3.63770   13.54858   11.79952
     151      444        3    -0.18447    2.47141   12.81277   11.54221
     152      444        3     0.11437    1.91180   12.04589   12.55658
     153      444        3    -0.19317    4.16346   13.49485   13.10339
     154      444        3     0.11464    3.53656   12.71408   14.06127
     155      444        3     0.28915    2.49870   12.12583    2.62001
     156      444        3     0.06902    3.21358   12.85642    3.66003
     157      444        3    -0.18470    4.37922   13.59296    3.40213
     158      444        3     0.11484    4.94058   14.35782    4.41717
     159      444        3    -0.19439    2.68760   12.91096    4.96375
     160      444        3     0.11600    3.31647   13.68934    5.92228
     161      444        3     0.28866    2.73066   17.39505    5.50799
     162      444        3     0.06952    3.44633   18.12278    4.46664
     163      444        3    -0.18401    4.61255   18.85868    4.72401
     164      444        3     0.11427    5.17216   19.62558    3.70964
     165      444        3    -0.19363    2.92063   18.17644    3.16276
     166      444        3     0.11428    3.54751   18.95722    2.20488
     167      444        3     0.28898    4.58523   19.54524   13.64617
     168      444        3     0.06894    3.87035   18.81458   12.60618
     169      444        3    -0.18473    2.70475   18.07802   12.86410
     170      444        3     0.11487    2.14340   17.31318   11.84903
     171      444        3    -0.19377    4.39634   18.76006   11.30246
     172      444        3     0.11565    3.76748   17.98172   10.34392
     173      444        4    -0.26486    3.85524   14.69314    9.56354
     174      444        4    -0.02509    4.92183   15.20233    8.90081
     175      444        4     0.00688    6.00945   15.10035    9.68945
     176      444        4    -0.33234    5.67172   14.53904   10.85885
     177      444        4    -0.24912    2.43010   11.97447   13.80435
     178      444        4    -0.26405    2.99873   11.69987    1.42950
     179      444        4    -0.02595    1.93244   11.18736    0.76857
     180      444        4     0.00819    0.84297   11.29819    1.55321
     181      444        4    -0.33301    1.17955   11.86649    2.71954
     182      444        4    -0.25024    4.42433   14.42705    5.66589
     183      444        4    -0.26445    3.22877   16.97810    6.70256
     184      444        4    -0.02529    2.16218   16.46884    7.36523
     185      444        4     0.00701    1.07455   16.57085    6.57657
     186      444        4    -0.33228    1.41232   17.13224    5.40722
     187      444        4    -0.24915    4.65392   19.69689    2.46184
     188      444        4    -0.26360    4.08519   19.97134   14.83664
     189      444        4    -0.02676    5.15147   20.48392   15.49750
     190      444        4     0.00842    6.24097   20.37300   14.71286
     191      444        4    -0.33292    5.90438   19.80457   13.54661
     192      444        4    -0.25012    2.65961   17.24400   10.60029
     193      444        1     0.22131    2.10914   15.79098   25.52510
     194      444        1     0.22109    4.76272   10.61798   17.39140
     195      444        1     0.22126    4.99243   15.89653   23.27078
     196      444        1     0.22076    2.33879   21.06957   31.40452
     197      444        2     0.13389    2.02243   12.83355   26.82108
     198      444        2     0.08665    1.02957   11.45076   28.64341
     199      444        2     0.13745    5.07755   14.05493   29.61566
     200      444        2     0.07546    3.93977   12.65257   31.34082
     201      444        2     0.13409    4.84497   13.58937   18.68058
     202      444        2     0.08653    5.84047   14.96910   20.50388
     203      444        2     0.13800    1.79039   12.36819   21.47578
     204      444        2     0.07555    2.93153   13.76631   23.20213
     205      444        2     0.13379    5.07908   18.85426   21.97516
     206      444        2     0.08667    6.07192   20.23709   20.15283
     207      444        2     0.13752    2.02417   17.63260   19.18046
     208      444        2     0.07587    3.16195   19.03496   17.45532
     209      444        2     0.13432    2.25660   18.09787   30.11565
     210      444        2     0.08640    1.26111   16.71815   28.29229
     211      444        2     0.13791    5.31114   19.31915   27.32048
     212      444        2     0.07539    4.17001   17.92108   25.59408
     213      444        3     0.28919    4.36217   14.28439   27.02312
     214      444        3     0.06928    3.64650   13.55673   28.06452
     215      444        3    -0.18447    2.48021   12.82091   27.80721
     216      444        3     0.11437    1.92060   12.05403   28.82157
     217      444        3    -0.19317    4.17226   13.50300   29.36839
     218      444        3     0.11464    3.54536   12.72223   30.32626
     219      444        3     0.28915    2.50750   12.13398   18.88501
     220      444        3     0.06902    3.22238   12.86457   19.92503
     221      444        3    -0.18470    4.38801   13.60111   19.66713
     222      444        3     0.11484    4.94938   14.36597   20.68216
     223      444        3    -0.19439    2.69639   12.91911   21.22875
     224      444        3     0.11600    3.32526   13.69749   22.18728
     225      444        3     0.28866    2.73946   17.40320   21.77299
     226      444        3     0.06952    3.45513   18.13093   20.73164
     227      444        3    -0.18401    4.62135   18.86683   20.98900
     228      444        3     0.11427    5.18095   19.63373   19.97463
     229      444        3    -0.19363    2.92943   18.18459   19.42776
     230      444        3     0.11428    3.55631   18.96537   18.46988
     231      444        3     0.28898    4.59403   19.55339   29.91116
     232      444        3     0.06894    3.87915   18.82273   28.87118
     233      444        3    -0.18473    2.71354   18.08617   29.12909
     234      444        3     0.11487    2.15219   17.32133   28.11403
     235      444        3    -0.19377    4.40514   18.76821   27.56746
     236      444        3     0.11565    3.77628   17.98987   26.60891
     237      444        4    -0.26486    3.86404   14.70128   25.82854
     238      444        4    -0.02509    4.93063   15.21048   25.16580
     239      444        4     0.00688    6.01825   15.10849   25.95444
     240      444        4    -0.33234    5.68052   14.54718   27.12385
     241      444        4    -0.24912    2.43890   11.98262   30.06934
     242      444        4    -0.26405    3.00753   11.70802   17.69449
     243      444        4    -0.02595    1.94124   11.19550   17.03357
     244      444        4     0.00819    0.85177   11.30634   17.81821
     245      444        4    -0.33301    1.18835   11.87464   18.98454
     246      444        4    -0.25024    4.43313   14.43520   21.93089
     247      444        4    -0.26445    3.23757   16.98625   22.96756
     248      444        4    -0.02529    2.17097   16.47699   23.63022
     249      444        4     0.00701    1.08335   16.57900   22.84157
     250      444        4    -0.33228    1.42112   17.14039   21.67221
     251      444        4    -0.24915    4.66272   19.70504   18.72683
     252      444        4    -0.26360    4.09398   19.97949   31.10163
     253      444        4    -0.02676    5.16027   20.49207   31.76249
     254      444        4     0.00842    6.24977   20.38115   30.97786
     255      444        4    -0.33292    5.91318   19.81272   29.81161
     256      444        4    -0.25012    2.66841   17.25214   26.86528
     257      444        1     0.22131    2.55101   26.33721    9.26010
     258      444        1     0.22109    5.20459   21.16421    1.12640
     259      444        1     0.22126    5.43429   26.44277    7.00579
     260      444        1     0.22076    2.78065   31.61581   15.13952
     261      444        2     0.13389    2.46429   23.37979   10.55608
     262      444        2     0.08665    1.47144   21.99700   12.37841
     263      444        2     0.13745    5.51942   24.60117   13.35067
     264      444        2     0.07546    4.38164   23.19880   15.07583
     265      444        2     0.13409    5.28683   24.13560    2.41558
     266      444        2     0.08653    6.28233   25.51534    4.23889
     267      444        2     0.13800    2.23225   22.91442    5.21078
     268      444        2     0.07555    3.37340   24.31254    6.93713
     269      444        2     0.13379    5.52095   29.40049    5.71017
     270      444        2     0.08667    6.51379   30.78332    3.88784
     271      444        2     0.13752    2.46603   28.17884    2.91547
     272      444        2     0.07587    3.60381   29.58120    1.19032
     273      444        2     0.13432    2.69847   28.64410   13.85065
     274      444        2     0.08640    1.70298   27.26439   12.02730
     275      444        2     0.13791    5.75301   29.86539   11.05548
     276      444        2     0.07539    4.61187   28.46731    9.32908
     277      444        3     0.28919    4.80403   24.83063   10.75812
     278      444        3     0.06928    4.08837   24.10296   11.79952
     279      444        3    -0.18447    2.92207   23.36715   11.54221
     280      444        3     0.11437    2.36247   22.60027   12.55658
     281      444        3    -0.19317    4.61413   24.04924   13.10339
     282      444        3     0.11464    3.98723   23.26846   14.06127
     283      444        3     0.28915    2.94936   22.68021    2.62001
     284      444        3     0.06902    3.66424   23.41080    3.66003
     285      444        3    -0.18470    4.82988   24.14735    3.40213
     286      444        3     0.11484    5.39124   24.91220    4.41717
     287      444        3    -0.19439    3.13826   23.46535    4.96375
     288      444        3     0.11600    3.76713   24.24373    5.92228
     289      444        3     0.28866    3.18133   27.94944    5.50799
     290      444        3     0.06952    3.89699   28.67717    4.46664
     291      444        3    -0.18401    5.06321   29.41306    4.72401
     292      444        3     0.11427    5.62282   30.17996    3.70964
     293      444        3    -0.19363    3.37129   28.73083    3.16276
     294      444        3     0.11428    3.99818   29.51160    2.20488
     295      444        3     0.28898    5.03590   30.09962   13.64617
     296      444        3     0.06894    4.32101   29.36897   12.60618
     297      444        3    -0.18473    3.15541   28.63240   12.86410
     298      444        3     0.11487    2.59406   27.86757   11.84903
     299      444        3    -0.19377    4.84701   29.31445   11.30246
     300      444        3     0.11565    4.21814   28.53611   10.34392
     301      444        4    -0.26486    4.30590   25.24752    9.56354
     302      444        4    -0.02509    5.37249   25.75671    8.90081
     303      444        4     0.00688    6.46012   25.65473    9.68945
     304      444        4    -0.33234    6.12238   25.09342   10.85885
     305      444        4    -0.24912    2.88077   22.52885   13.80435
     306      444        4    -0.26405    3.44939   22.25425    1.42950
     307      444        4    -0.02595    2.38311   21.74174    0.76857
     308      444        4     0.00819    1.29363   21.85257    1.55321
     309      444        4    -0.33301    1.63021   22.42088    2.71954
     310      444        4    -0.25024    4.87499   24.98143    5.66589
     311      444        4    -0.26445    3.67943   27.53248    6.70256
     312      444        4    -0.02529    2.61284   27.02323    7.36523
     313      444        4     0.00701    1.52521   27.12523    6.57657
     314      444        4    -0.33228    1.86299   27.68662    5.40722
     315      444        4    -0.24915    5.10458   30.25128    2.46184
     316      444        4    -0.26360    4.53585   30.52573   14.83664
     317      444        4    -0.02676    5.60214   31.03830   15.49750
     318      444        4     0.00842    6.69163   30.92739   14.71286
     319      444        4    -0.33292    6.35505   30.35896   13.54661
     320      444        4    -0.25012    3.11028   27.79838   10.60029
     321      444        1     0.22131    2.55980   26.34536   25.52510
     322      444        1     0.22109    5.21339   21.17236   17.39140
     323      444        1     0.22126    5.44309   26.45092   23.27078
     324      444        1     0.22076    2.78945   31.62396   31.40452
     325      444        2     0.13389    2.47309   23.38793   26.82108
     326      444        2     0.08665    1.48023   22.00515   28.64341
     327      444        2     0.13745    5.52821   24.60931   29.61566
     328      444        2     0.07546    4.39043   23.20695   31.34082
     329      444        2     0.13409    5.29563   24.14375   18.68058
     330      444        2     0.08653    6.29113   25.52349   20.50388
     331      444        2     0.13800    2.24105   22.92257   21.47578
     332      444        2     0.07555    3.38219   24.32069   23.20213
     333      444        2     0.13379    5.52975   29.40864   21.97516
     334      444        2     0.08667    6.52259   30.79147   20.15283
     335      444        2     0.13752    2.47483   28.18698   19.18046
     336      444        2     0.07587    3.61261   29.58935   17.45532
     337      444        2     0.13432    2.70727   28.65225   30.11565
     338      444        2     0.08640    1.71178   27.27254   28.29229
     339      444        2     0.13791    5.76180   29.87354   27.32048
     340      444        2     0.07539    4.62067   28.47546   25.59408
     341      444        3     0.28919    4.81283   24.83878   27.02312
     342      444        3     0.06928    4.09717   24.11111   28.06452
     343      444        3    -0.18447    2.93087   23.37530   27.80721
     344      444        3     0.11437    2.37127   22.60842   28.82157
     345      444        3    -0.19317    4.62293   24.05739   29.36839
     346      444        3     0.11464    3.99603   23.27661   30.32626
     347      444        3     0.28915    2.95816   22.68836   18.88501
     348      444        3     0.06902    3.67304   23.41895   19.92503
     349      444        3    -0.18470    4.83868   24.15549   19.66713
     350      444        3     0.11484    5.40004   24.92035   20.68216
     351      444        3    -0.19439    3.14706   23.47349   21.22875
     352      444        3     0.11600    3.77593   24.25187   22.18728
     353      444        3     0.28866    3.19013   27.95758   21.77299
     354      444        3     0.06952    3.90579   28.68532   20.73164
     355      444        3    -0.18401    5.07201   29.42121   20.98900
     356      444        3     0.11427    5.63162   30.18811   19.97463
     357      444        3    -0.19363    3.38009   28.73897   19.42776
     358      444        3     0.11428    4.00698   29.51975   18.46988
     359      444        3     0.28898    5.04469   30.10777   29.91116
     360      444        3     0.06894    4.32981   29.37712   28.87118
     361      444        3    -0.18473    3.16421   28.64055   29.12909
     362      444        3     0.11487    2.60286   27.87571   28.11403
     363      444        3    -0.19377    4.85581   29.32259   27.56746
     364      444        3     0.11565    4.22694   28.54426   26.60891
     365      444        4    -0.26486    4.31470   25.25567   25.82854
     366      444        4    -0.02509    5.38129   25.76486   25.16580
     367      444        4     0.00688    6.46892   25.66288   25.95444
     368      444        4    -0.33234    6.13118   25.10157   27.12385
     369      444        4    -0.24912    2.88957   22.53700   30.06934
     370      444        4    -0.26405    3.45819   22.26240   17.69449
     371      444        4    -0.02595    2.39191   21.74989   17.03357
     372      444        4     0.00819    1.30243   21.86072   17.81821
     373      444        4    -0.33301    1.63901   22.42903   18.98454
     374      444        4    -0.25024    4.88379   24.98958   21.93089
     375      444        4    -0.26445    3.68823   27.54063   22.96756
     376      444        4    -0.02529    2.62164   27.03138   23.63022
     377      444        4     0.00701    1.53401   27.13338   22.84157
     378      444        4    -0.33228    1.87179   27.69477   21.67221