Created on Tue Feb 06 14:44:10 2018 

        3360 atoms
        3840 bonds
        6720 angles
        7680 dihedrals
        5760 impropers

           5 atom types
           6 bond types
          10 angle types
           2 dihedral types
           1 improper types
           0.000000  44.824000 xlo xhi
           0.000000  33.893786 ylo yhi
           0.000000  33.788398 zlo zhi
          11.179774  11.149406   3.498631 xy xz yz

Masses

    1    65.380000000 # Zn3+2
    2     1.007940000 # H_
    3    12.010700000 # C_R
    4    14.006700000 # N_R
    5    15.999400000 # O_R

Bond Coeffs

    1      165.837318        1.881712  # Zn3+2 N_R
    2      357.440381        1.081418  # H_ C_R
    3      663.718927        1.345073  # C_R N_R
    4      462.655054        1.379256  # C_R C_R
    5      561.491352        1.422196  # C_R N_R
    6      884.941708        1.299717  # N_R O_R

Angle Coeffs

    1                      fourier       55.784590        0.343737        0.374972        0.281246 # N_R Zn3+2 N_R
    2              cosine/periodic       76.817955              -1               3 # H_ C_R C_R
    3              cosine/periodic      165.695700              -1               3 # N_R C_R C_R
    4              cosine/periodic      109.704024              -1               3 # N_R C_R H_
    5              cosine/periodic      203.845436              -1               3 # N_R C_R N_R
    6              cosine/periodic      234.844275              -1               3 # N_R C_R N_R
    7              cosine/periodic       36.261492              -1               3 # Zn3+2 N_R C_R
    8              cosine/periodic      132.654363              -1               3 # C_R N_R C_R
    9              cosine/periodic      150.385468              -1               3 # C_R N_R O_R
   10              cosine/periodic      227.869199              -1               3 # O_R N_R O_R

Dihedral Coeffs

    1        1.497136              -1               2 # C_R C_R N_R C_R
    2        0.555556              -1               2 # N_R C_R N_R O_R

Improper Coeffs

    1        2.000000        1.000000       -1.000000        0.000000               0 # C_R C_R N_R H_

Pair Coeffs

    1        0.124000        2.461553 # Zn3+2 Zn3+2
    2        0.044000        2.571134 # H_ H_
    3        0.105000        3.430851 # C_R C_R
    4        0.069000        3.260689 # N_R N_R
    5        0.060000        3.118146 # O_R O_R

Atoms

       1      444        1     0.77594   14.32884    7.06380   15.68457
       2      444        1     0.77594   25.53453    7.06395   15.68457
       3      444        1     0.77594    8.02666   16.28818    5.42777
       4      444        1     0.77594   19.23243   16.28824    5.42760
       5      444        1     0.77594   13.64178   10.00414    3.00717
       6      444        1     0.77594   24.85137   10.00524    3.01899
       7      444        1     0.77594    8.74206    4.03450    9.65656
       8      444        1     0.77594   19.94777    4.03450    9.65656
       9      444        1     0.77594    8.04120   11.63190    1.20962
      10      444        1     0.77594   19.24695   11.63209    1.20962
      11      444        1     0.77594   14.34316    2.40750   11.46609
      12      444        1     0.77594   25.54908    2.40762   11.46643
      13      444        1     0.77594    8.72439    8.69063   13.87537
      14      444        1     0.77594   19.93020    8.69058   13.87537
      15      444        1     0.77594   13.62803   14.66140    7.23764
      16      444        1     0.77594   24.83368   14.66125    7.23764
      17      444        1     0.77594   11.19064    4.67407    4.22456
      18      444        1     0.77594   22.39628    4.67404    4.22473
      19      444        1     0.77594   11.17954   14.02186   12.66947
      20      444        1     0.77594   22.38521   14.02176   12.66947
      21      444        2     0.10847    9.83317    2.08216    2.75088
      22      444        2     0.10847   21.03879    2.08223    2.75088
      23      444        2     0.10847    8.59695    2.38048    0.27875
      24      444        2     0.10847   19.80263    2.38060    0.27875
      25      444        2     0.10847   15.94034    7.16005   12.95616
      26      444        2     0.10847   27.14588    7.16018   12.95599
      27      444        2     0.10847   17.57002   10.76247   13.99178
      28      444        2     0.10847   28.77569   10.76256   13.99161
      29      444        2     0.10847   15.02327   10.06167   14.88852
      30      444        2     0.10847   26.22894   10.06177   14.88835
      31      444        2     0.10847   12.53779    2.93407    1.80008
      32      444        2     0.10847   23.74299    2.93378    1.79923
      33      444        2     0.10847    2.57888    0.51234    2.35336
      34      444        2     0.10847   13.78476    0.51237    2.35336
      35      444        2     0.10847    6.42456   13.57374    5.78897
      36      444        2     0.10847   17.63008   13.57393    5.78880
      37      444        2     0.10847   15.99248   14.98932    9.28488
      38      444        2     0.10847   27.19803   14.98947    9.28488
      39      444        2     0.10847   18.53950   15.80337    8.49170
      40      444        2     0.10847   29.74510   15.80339    8.49170
      41      444        2     0.10847   12.54116    6.41551    6.64804
      42      444        2     0.10847   23.74663    6.41552    6.64804
      43      444        2     0.10847   13.79669    8.83235    6.09222
      44      444        2     0.10847   25.00208    8.83229    6.09222
      45      444        2     0.10847   12.03814   12.71669    2.65171
      46      444        2     0.10847   23.24386   12.71668    2.65171
      47      444        2     0.10847   15.98129   13.06006   16.05946
      48      444        2     0.10847   27.18698   13.06021   16.05946
      49      444        2     0.10847   18.52746   12.24220   16.85146
      50      444        2     0.10847   29.73311   12.24217   16.85146
      51      444        2     0.10847    9.83550    7.26472    5.69960
      52      444        2     0.10847   21.04089    7.26456    5.69943
      53      444        2     0.10847    8.58761    6.96717    8.16598
      54      444        2     0.10847   19.79301    6.96712    8.16581
      55      444        2     0.10847   10.34514    3.94528   12.38767
      56      444        2     0.10847   21.55082    3.94528   12.38750
      57      444        2     0.10847   17.56995   17.28071   11.35544
      58      444        2     0.10847   28.77565   17.28074   11.35560
      59      444        2     0.10847   15.02326   17.98222   10.45971
      60      444        2     0.10847   26.22900   17.98221   10.45987
      61      444        2     0.10847   12.53694   16.61354   14.14332
      62      444        2     0.10847   23.74250   16.61364   14.14332
      63      444        2     0.10847   13.77305   16.31523   16.61544
      64      444        2     0.10847   24.97865   16.31539   16.61544
      65      444        2     0.10847    6.42996   11.53557    3.93838
      66      444        2     0.10847   17.63550   11.53576    3.93821
      67      444        2     0.10847    4.79998    7.93335    2.90276
      68      444        2     0.10847   16.00560    7.93338    2.90242
      69      444        2     0.10847    7.34656    8.63401    2.00534
      70      444        2     0.10847   18.55241    8.63408    2.00551
      71      444        2     0.10847    9.83247   15.76200   15.09412
      72      444        2     0.10847   21.03805   15.76181   15.09412
      73      444        2     0.10847   19.79083   18.18341   14.54067
      74      444        2     0.10847   30.99614   18.18327   14.53915
      75      444        2     0.10847   15.94575    5.12186   11.10557
      76      444        2     0.10847   27.15137    5.12201   11.10557
      77      444        2     0.10847    6.37757    3.70659    7.60932
      78      444        2     0.10847   17.58319    3.70667    7.60932
      79      444        2     0.10847    3.83048    2.89262    8.40250
      80      444        2     0.10847   15.03622    2.89257    8.40250
      81      444        2     0.10847    9.82914   12.28031   10.24616
      82      444        2     0.10847   21.03470   12.28031   10.24616
      83      444        2     0.10847    8.57381    9.86343   10.80198
      84      444        2     0.10847   19.77930    9.86346   10.80198
      85      444        2     0.10847   10.33169    5.97916   14.24265
      86      444        2     0.10847   21.53752    5.97919   14.24249
      87      444        2     0.10847    6.38878    5.63591    0.83491
      88      444        2     0.10847   17.59443    5.63595    0.83491
      89      444        2     0.10847    3.84265    6.45382    0.04291
      90      444        2     0.10847   15.04827    6.45389    0.04291
      91      444        2     0.10847   12.53495   11.43120   11.19477
      92      444        2     0.10847   23.74048   11.43107   11.19477
      93      444        2     0.10847   13.78286   11.72880    8.72839
      94      444        2     0.10847   24.98837   11.72866    8.72839
      95      444        2     0.10847   12.02481   14.75066    4.50670
      96      444        2     0.10847   23.23051   14.75064    4.50670
      97      444        2     0.10847    4.79998    1.41511    5.53843
      98      444        2     0.10847   16.00575    1.41513    5.53859
      99      444        2     0.10847    7.34671    0.71376    6.43432
     100      444        2     0.10847   18.55245    0.71371    6.43449
     101      444        3     0.03662    9.59699    2.98588    2.19794
     102      444        3     0.03662   20.80253    2.98596    2.19794
     103      444        3     0.03662    8.97864    3.13412    0.95689
     104      444        3     0.03662   20.18415    3.13420    0.95672
     105      444        3     0.29435    9.44869    5.07559    1.73419
     106      444        3     0.29435   20.65422    5.07563    1.73436
     107      444        3     0.03662   15.40974    6.21281   12.97474
     108      444        3     0.03662   26.61865    6.21399   12.98471
     109      444        3     0.29435   17.29089    7.85165   15.24685
     110      444        3     0.29435   28.49660    7.85175   15.24685
     111      444        3     0.03662   17.22168    9.84919   14.45958
     112      444        3     0.03662   28.42735    9.84929   14.45941
     113      444        3     0.03662   15.94845    9.49661   14.89291
     114      444        3     0.03662   27.15412    9.49671   14.89274
     115      444        3     0.03662   12.77893    2.48097    2.75629
     116      444        3     0.03662   23.98454    2.48085    2.75629
     117      444        3     0.03662    2.19702    1.26455    3.03285
     118      444        3     0.03662   13.40293    1.26462    3.03285
     119      444        3     0.29435   12.93638    2.24137    4.88293
     120      444        3     0.29435   24.14208    2.24134    4.88293
     121      444        3     0.03662    6.95442   13.51229    4.84559
     122      444        3     0.03662   18.16009   13.51244    4.84559
     123      444        3     0.29435   16.27065   15.92869    6.25727
     124      444        3     0.29435   27.47633   15.92854    6.25727
     125      444        3     0.03662   16.34042   15.35769    8.32698
     126      444        3     0.03662   27.54108   15.35615    8.31195
     127      444        3     0.03662   17.61397   15.74922    7.92963
     128      444        3     0.03662   28.81962   15.74919    7.92963
     129      444        3     0.03662   12.78218    6.86776    5.69132
     130      444        3     0.03662   23.98771    6.86778    5.69132
     131      444        3     0.03662   13.41003    8.08170    5.41290
     132      444        3     0.03662   24.61575    8.08173    5.41375
     133      444        3     0.29435   12.93599    7.10717    3.56451
     134      444        3     0.29435   24.13607    7.10542    3.54778
     135      444        3     0.03662   12.56314   12.77824    3.59762
     136      444        3     0.03662   23.76881   12.77820    3.59762
     137      444        3     0.29435   10.68259   10.36106    2.19016
     138      444        3     0.29435   21.88825   10.36118    2.19016
     139      444        3     0.03662   10.75388   10.93902    0.12231
     140      444        3     0.03662   21.95954   10.93914    0.12231
     141      444        3     0.03662   12.02686   10.54534    0.51899
     142      444        3     0.03662   23.23254   10.54532    0.51899
     143      444        3     0.03662    9.59696    6.36113    6.25153
     144      444        3     0.03662   20.80257    6.36101    6.25153
     145      444        3     0.03662    8.97229    6.21338    7.48987
     146      444        3     0.03662   20.17788    6.21329    7.48987
     147      444        3     0.29435    9.44566    4.27164    6.71528
     148      444        3     0.29435   20.65132    4.27154    6.71528
     149      444        3     0.03662    9.81396    4.88930   12.35828
     150      444        3     0.03662   21.01954    4.88921   12.35844
     151      444        3     0.29435   11.70226    3.24382   10.09817
     152      444        3     0.29435   22.90798    3.24377   10.09817
     153      444        3     0.03662   11.63229    1.24709   10.88713
     154      444        3     0.03662   22.83806    1.24706   10.88713
     155      444        3     0.03662   10.35886    1.60015   10.45413
     156      444        3     0.03662   21.56471    1.60014   10.45447
     157      444        3     0.03662   12.77308   15.70980   14.69609
     158      444        3     0.03662   23.97873   15.70990   14.69593
     159      444        3     0.03662   13.39149   15.56162   15.93748
     160      444        3     0.03662   24.59718   15.56174   15.93731
     161      444        3     0.29435   12.92149   13.62014   15.16001
     162      444        3     0.29435   24.12723   13.62024   15.15984
     163      444        3     0.03662    6.95716   12.48181    3.90966
     164      444        3     0.03662   18.16272   12.48198    3.90949
     165      444        3     0.29435    5.07901   10.84415    1.64718
     166      444        3     0.29435   16.28492   10.84434    1.64752
     167      444        3     0.03662    5.14832    8.84663    2.43496
     168      444        3     0.03662   16.35410    8.84673    2.43496
     169      444        3     0.03662    6.42152    9.19920    2.00146
     170      444        3     0.03662   17.62727    9.19926    2.00129
     171      444        3     0.03662    9.59116   16.21502   14.13791
     172      444        3     0.03662   20.79685   16.21490   14.13791
     173      444        3     0.03662   20.17275   17.43120   13.86135
     174      444        3     0.03662   31.37861   17.43125   13.86135
     175      444        3     0.29435    9.43367   16.45456   12.01127
     176      444        3     0.29435   20.63936   16.45450   12.01127
     177      444        3     0.03662   15.41572    5.18336   12.04877
     178      444        3     0.03662   26.62129    5.18349   12.04860
     179      444        3     0.29435    6.09935    2.76737   10.63693
     180      444        3     0.29435   17.30506    2.76728   10.63693
     181      444        3     0.03662    6.02958    3.33829    8.56722
     182      444        3     0.03662   17.23523    3.33838    8.56722
     183      444        3     0.03662    4.75599    2.94678    8.96457
     184      444        3     0.03662   15.96168    2.94680    8.96457
     185      444        3     0.03662    9.58799   11.82813   11.20288
     186      444        3     0.03662   20.79345   11.82818   11.20288
     187      444        3     0.03662    8.96001   10.61412   11.48062
     188      444        3     0.03662   20.16540   10.61417   11.48062
     189      444        3     0.29435    9.43414   11.58875   13.32969
     190      444        3     0.29435   20.63959   11.58878   13.32969
     191      444        3     0.03662    9.80677    5.91767   13.29675
     192      444        3     0.03662   21.01235    5.91753   13.29675
     193      444        3     0.29435   11.68744    8.33454   14.70403
     194      444        3     0.29435   22.89278    8.33466   14.70302
     195      444        3     0.03662   11.61621    7.75688   16.77205
     196      444        3     0.03662   22.82189    7.75698   16.77205
     197      444        3     0.03662   10.34324    8.15063   16.37538
     198      444        3     0.03662   21.54888    8.15072   16.37538
     199      444        3     0.03662   12.77326   12.33477   10.64267
     200      444        3     0.03662   23.97879   12.33464   10.64267
     201      444        3     0.03662   13.39794   12.48256    9.40432
     202      444        3     0.03662   24.60345   12.48243    9.40432
     203      444        3     0.29435   12.92444   14.42427   10.17892
     204      444        3     0.29435   24.13002   14.42415   10.17892
     205      444        3     0.03662   12.55598   13.80666    4.53592
     206      444        3     0.03662   23.76162   13.80659    4.53592
     207      444        3     0.29435   10.66775   15.45214    6.79603
     208      444        3     0.29435   21.87343   15.45217    6.79620
     209      444        3     0.03662   10.73765   17.44885    6.00707
     210      444        3     0.03662   21.94339   17.44886    6.00724
     211      444        3     0.03662   12.01056   17.09566    6.43838
     212      444        3     0.03662   23.21674   17.09578    6.43990
     213      444        3     0.29435   14.07167    4.67493   13.63987
     214      444        3     0.29435   25.27732    4.67505   13.63987
     215      444        3     0.29435    8.29816   14.02072    3.25382
     216      444        3     0.29435   19.50402   14.02091    3.25433
     217      444        3     0.29435   13.90094   12.27249    5.19497
     218      444        3     0.29435   25.10661   12.27242    5.19497
     219      444        3     0.29435    8.46903    6.42350   11.69923
     220      444        3     0.29435   19.67449    6.42332   11.69957
     221      444        4    -0.38721    9.90032    4.22597    2.68077
     222      444        4    -0.38721   21.10593    4.22602    2.68077
     223      444        4    -0.38721    8.88953    4.46444    0.66225
     224      444        4    -0.38721   20.09529    4.46456    0.66259
     225      444        4     0.52429    9.46504    6.48344    1.90651
     226      444        4     0.52429   20.67060    6.48347    1.90651
     227      444        4    -0.38721   14.56333    5.88391   14.00005
     228      444        4    -0.38721   25.76893    5.88408   14.00005
     229      444        4    -0.38721   15.99455    8.22012   15.38048
     230      444        4    -0.38721   27.20039    8.22029   15.38082
     231      444        4    -0.38721   18.07011    8.80259   14.68680
     232      444        4    -0.38721   29.27584    8.80273   14.68680
     233      444        4     0.52429   17.80415    6.59610   15.68542
     234      444        4     0.52429   29.00987    6.59622   15.68525
     235      444        4    -0.38721   12.47801    3.09097    3.93956
     236      444        4    -0.38721   23.68351    3.09082    3.93956
     237      444        4    -0.38721    2.29191    1.11331    4.38641
     238      444        4    -0.38721   13.49787    1.11338    4.38641
     239      444        4     0.52429   12.92534    2.56168    6.26454
     240      444        4     0.52429   24.13095    2.56160    6.26454
     241      444        4    -0.38721    7.80273   14.49328    4.42223
     242      444        4    -0.38721   19.00835   14.49344    4.42223
     243      444        4    -0.38721   17.56752   16.09902    6.60867
     244      444        4    -0.38721   28.77322   16.09885    6.60867
     245      444        4    -0.38721   15.49140   15.47439    7.26299
     246      444        4    -0.38721   26.69704   15.47434    7.26299
     247      444        4     0.52429   15.75720   16.22920    4.96166
     248      444        4     0.52429   26.96292   16.22902    4.96166
     249      444        4    -0.38721   12.47679    6.25898    4.50872
     250      444        4    -0.38721   23.68224    6.25895    4.50855
     251      444        4    -0.38721   13.50289    8.23298    4.05984
     252      444        4    -0.38721   24.70859    8.23291    4.05984
     253      444        4     0.52429   12.91947    6.78709    2.18290
     254      444        4     0.52429   24.12503    6.78719    2.18273
     255      444        4    -0.38721   13.41371   11.80015    4.02335
     256      444        4    -0.38721   24.61943   11.80012    4.02335
     257      444        4    -0.38721   11.97943   10.19120    1.83876
     258      444        4    -0.38721   23.18510   10.19115    1.83876
     259      444        4    -0.38721    9.90419   10.81948    1.18563
     260      444        4    -0.38721   21.10990   10.81963    1.18563
     261      444        4     0.52429   10.16807   10.05493    3.48426
     262      444        4     0.52429   21.37368   10.05506    3.48409
     263      444        4    -0.38721    9.90245    5.12089    5.77072
     264      444        4    -0.38721   21.10758    5.12062    5.76937
     265      444        4    -0.38721    8.88138    4.88322    7.78383
     266      444        4    -0.38721   20.08694    4.88311    7.78383
     267      444        4     0.52429    9.46018    2.86393    6.54312
     268      444        4     0.52429   20.66549    2.86381    6.54312
     269      444        4    -0.38721    8.96812    5.21750   11.33922
     270      444        4    -0.38721   20.17361    5.21741   11.33939
     271      444        4    -0.38721   10.40557    2.87622    9.96521
     272      444        4    -0.38721   21.61126    2.87616    9.96521
     273      444        4    -0.38721   12.48130    2.29277   10.65804
     274      444        4    -0.38721   23.68701    2.29275   10.65804
     275      444        4     0.52429   12.21608    4.49920    9.66027
     276      444        4     0.52429   23.42170    4.49925    9.66044
     277      444        4    -0.38721   12.46982   14.46975   14.21343
     278      444        4    -0.38721   23.67549   14.46985   14.21343
     279      444        4    -0.38721   13.48043   14.23124   16.23161
     280      444        4    -0.38721   24.68616   14.23137   16.23161
     281      444        4     0.52429   12.90521   12.21228   14.98769
     282      444        4     0.52429   24.11071   12.21240   14.98786
     283      444        4    -0.38721    7.80684   12.81174    2.89431
     284      444        4    -0.38721   19.01238   12.81192    2.89415
     285      444        4    -0.38721    6.37536   10.47560    1.51355
     286      444        4    -0.38721   17.58064   10.47553    1.51203
     287      444        4    -0.38721    4.29988    9.89321    2.20756
     288      444        4    -0.38721   15.50567    9.89326    2.20740
     289      444        4     0.52429    4.56582   12.09960    1.20878
     290      444        4     0.52429   15.77167   12.09963    1.20861
     291      444        4    -0.38721    9.89231   15.60510   12.95464
     292      444        4    -0.38721   21.09783   15.60491   12.95464
     293      444        4    -0.38721   20.07782   17.58248   12.50779
     294      444        4    -0.38721   31.28378   17.58254   12.50779
     295      444        4     0.52429    9.44498   16.13438   10.62966
     296      444        4     0.52429   20.65044   16.13436   10.62966
     297      444        4    -0.38721   14.56736    4.20240   12.47197
     298      444        4    -0.38721   25.77297    4.20252   12.47197
     299      444        4    -0.38721    4.80245    2.59707   10.28553
     300      444        4    -0.38721   16.00817    2.59685   10.28553
     301      444        4    -0.38721    6.87860    3.22165    9.63121
     302      444        4    -0.38721   18.08431    3.22158    9.63121
     303      444        4     0.52429    6.61281    2.46675   11.93237
     304      444        4     0.52429   17.81857    2.46643   11.93237
     305      444        4    -0.38721    9.89330   12.43689   12.38514
     306      444        4    -0.38721   21.09902   12.43689   12.38548
     307      444        4    -0.38721    8.86727   10.46292   12.83435
     308      444        4    -0.38721   20.07284   10.46286   12.83435
     309      444        4     0.52429    9.45093   11.90866   14.71147
     310      444        4     0.52429   20.65224   11.90718   14.69795
     311      444        4    -0.38721    8.95585    6.89565   12.87000
     312      444        4    -0.38721   20.16175    6.89574   12.87101
     313      444        4    -0.38721   10.39060    8.50460   15.05543
     314      444        4    -0.38721   21.59630    8.50472   15.05560
     315      444        4    -0.38721   12.46582    7.87627   15.70856
     316      444        4    -0.38721   23.67152    7.87641   15.70873
     317      444        4     0.52429   12.20190    8.64050   13.40994
     318      444        4     0.52429   23.40755    8.64062   13.41011
     319      444        4    -0.38721   12.46779   13.57499   11.12348
     320      444        4    -0.38721   23.67333   13.57489   11.12348
     321      444        4    -0.38721   13.48887   13.81276    9.11037
     322      444        4    -0.38721   24.69440   13.81264    9.11037
     323      444        4     0.52429   12.91021   15.83201   10.35124
     324      444        4     0.52429   24.11586   15.83191   10.35124
     325      444        4    -0.38721   13.40186   13.47849    5.55498
     326      444        4    -0.38721   24.60755   13.47844    5.55498
     327      444        4    -0.38721   11.96449   15.81981    6.92899
     328      444        4    -0.38721   23.17019   15.81976    6.92916
     329      444        4    -0.38721    9.88872   16.40313    6.23616
     330      444        4    -0.38721   21.09441   16.40315    6.23616
     331      444        4     0.52429   10.15405   14.19672    7.23376
     332      444        4     0.52429   21.35972   14.19667    7.23376
     333      444        4     0.52429   13.04337    4.01644   14.35990
     334      444        4     0.52429   24.24908    4.01644   14.35990
     335      444        4     0.52429    9.32673   14.67929    2.53447
     336      444        4     0.52429   20.53233   14.67944    2.53447
     337      444        4     0.52429   14.92774   11.61642    5.91939
     338      444        4     0.52429   26.13347   11.61641    5.91956
     339      444        4     0.52429    7.44232    7.07953   10.97481
     340      444        4     0.52429   18.64806    7.07972   10.97447
     341      444        5    -0.36119    9.96129    6.93989    2.96561
     342      444        5    -0.36119   21.16695    6.93994    2.96561
     343      444        5    -0.36119    8.95957    7.19525    1.00825
     344      444        5    -0.36119   20.16528    7.19532    1.00825
     345      444        5    -0.36119   16.98752    5.74230   16.09443
     346      444        5    -0.36119   28.19336    5.74247   16.09460
     347      444        5    -0.36119   12.61001    4.56659   15.40109
     348      444        5    -0.36119   23.81569    4.56672   15.40109
     349      444        5    -0.36119    7.83596    6.42962   15.63980
     350      444        5    -0.36119   19.04184    6.42950   15.63997
     351      444        5    -0.36119   12.42251    3.65933    6.60901
     352      444        5    -0.36119   23.62799    3.65919    6.60901
     353      444        5    -0.36119   13.44147    1.74726    7.06431
     354      444        5    -0.36119   24.64716    1.74721    7.06431
     355      444        5    -0.36119   16.57473   16.53223    4.06474
     356      444        5    -0.36119   27.78085   16.53183    4.06576
     357      444        5    -0.36119    9.76112   15.76381    2.99281
     358      444        5    -0.36119   20.96687   15.76386    2.99281
     359      444        5    -0.36119   14.51869   16.17680    4.80302
     360      444        5    -0.36119   25.72447   16.17666    4.80319
     361      444        5    -0.36119   12.41049    5.69157    1.84045
     362      444        5    -0.36119   23.61596    5.69165    1.83978
     363      444        5    -0.36119   13.43548    7.59939    1.38110
     364      444        5    -0.36119   24.64121    7.59904    1.38026
     365      444        5    -0.36119   10.98463    9.74159    4.37762
     366      444        5    -0.36119   22.19007    9.74133    4.37729
     367      444        5    -0.36119   15.37031   10.53549    5.46054
     368      444        5    -0.36119   26.57572   10.53534    5.46071
     369      444        5    -0.36119    8.92995   10.11208    3.64323
     370      444        5    -0.36119   20.13563   10.11265    3.64323
     371      444        5    -0.36119    9.96624    2.40582    5.48926
     372      444        5    -0.36119   21.17204    2.40567    5.48960
     373      444        5    -0.36119    8.94229    2.15415    7.43615
     374      444        5    -0.36119   20.14763    2.15391    7.43598
     375      444        5    -0.36119   11.39935    5.35407    9.25295
     376      444        5    -0.36119   22.60476    5.35394    9.25295
     377      444        5    -0.36119    7.01831    6.53102    9.92889
     378      444        5    -0.36119   18.22393    6.53109    9.92889
     379      444        5    -0.36119   13.45378    4.66531    9.70589
     380      444        5    -0.36119   24.65945    4.66527    9.70572
     381      444        5    -0.36119   12.40904   11.75575   13.92859
     382      444        5    -0.36119   23.61448   11.75593   13.92859