Created on Tue Feb 06 15:03:04 2018 

        2856 atoms
        3216 bonds
        5496 angles
        6912 dihedrals
        4608 impropers

           6 atom types
          11 bond types
          21 angle types
           4 dihedral types
           1 improper types
           0.000000  43.022000 xlo xhi
           0.000000  37.325999 ylo yhi
           0.000000  26.085962 zlo zhi
           0.007166   0.000911  -0.512718 xy xz yz

Masses

    1    65.380000000 # Zn3f2
    2     1.007940000 # H_
    3    12.010700000 # C_R
    4    12.010700000 # C_2
    5    14.006700000 # N_R
    6    15.999400000 # O_R

Bond Coeffs

    1      148.759211        1.886642  # Zn3f2 O_R
    2      154.048673        1.928536  # Zn3f2 N_R
    3      354.483902        1.084416  # H_ C_2
    4      357.440381        1.081418  # H_ C_R
    5      646.680887        1.311940  # C_R O_R
    6      389.261715        1.461000  # C_R C_2
    7      459.810871        1.382094  # C_R C_2
    8      517.346067        1.328833  # C_2 C_2
    9      456.989953        1.384932  # C_2 C_2
   10      462.655054        1.379256  # C_R C_R
   11      663.718927        1.345073  # C_R N_R

Angle Coeffs

    1                      fourier       45.004281        0.343737        0.374972        0.281246 # O_R Zn3f2 O_R
    2                      fourier       47.099941        0.343737        0.374972        0.281246 # O_R Zn3f2 N_R
    3              cosine/periodic      137.013450              -1               3 # O_R C_R C_2
    4              cosine/periodic      217.450257              -1               3 # O_R C_R O_R
    5              cosine/periodic      158.393079              -1               3 # C_2 C_R O_R
    6              cosine/periodic       84.775358              -1               3 # C_2 C_2 H_
    7              cosine/periodic      110.514224              -1               3 # C_2 C_2 C_R
    8              cosine/periodic       64.722957              -1               3 # H_ C_2 C_R
    9              cosine/periodic      115.221501              -1               3 # C_2 C_2 C_R
   10              cosine/periodic       75.474778              -1               3 # C_2 C_2 H_
   11              cosine/periodic       75.915272              -1               3 # C_R C_2 H_
   12              cosine/periodic      100.088600              -1               3 # C_2 C_2 C_R
   13              cosine/periodic      101.089243              -1               3 # C_2 C_R C_R
   14              cosine/periodic      117.010657              -1               3 # C_R C_R C_R
   15              cosine/periodic       76.817955              -1               3 # H_ C_R C_R
   16              cosine/periodic      165.695700              -1               3 # C_R C_R N_R
   17              cosine/periodic      109.704024              -1               3 # H_ C_R N_R
   18              cosine/periodic      132.654363              -1               3 # C_R N_R C_R
   19              cosine/periodic       33.704159              -1               3 # Zn3f2 N_R C_R
   20              cosine/periodic       46.721183              -1               3 # Zn3f2 O_R C_R
   21              cosine/periodic       14.366569              -1               3 # Zn3f2 O_R Zn3f2

Dihedral Coeffs

    1        2.245703              -1               2 # O_R C_R O_R Zn3f2
    2        0.555556              -1               2 # O_R C_R C_2 C_2
    3        1.497136              -1               2 # O_R C_R C_2 H_
    4        2.165197              -1               2 # C_R C_2 C_2 C_R

Improper Coeffs

    1        2.000000        1.000000       -1.000000        0.000000               0 # O_R C_R O_R C_2

Pair Coeffs

    1        0.124000        2.461553 # Zn3f2 Zn3f2
    2        0.044000        2.571134 # H_ H_
    3        0.105000        3.430851 # C_R C_R
    4        0.105000        3.430851 # C_2 C_2
    5        0.069000        3.260689 # N_R N_R
    6        0.060000        3.118146 # O_R O_R

Atoms

       1      444        1     0.89269    8.25066    6.85571   14.60475
       2      444        1     0.89269   18.98409    6.85471   14.60423
       3      444        1     0.89269    8.25307   11.03932   24.52498
       4      444        1     0.89269   18.98526   11.04000   24.52367
       5      444        1     0.89269    2.53042    5.07493   11.48095
       6      444        1     0.89269   13.26392    5.07392   11.48043
       7      444        1     0.89269    2.52930    0.88964    1.55994
       8      444        1     0.89269   13.26157    0.89033    1.56020
       9      444        1     1.13724    5.39173    5.96611   13.04272
      10      444        1     1.13724   16.12279    5.96348   13.04246
      11      444        1     1.13724    5.39288   11.92809   26.08544
      12      444        1     1.13724   16.12244   -0.51132   26.08596
      13      444        2     0.10752    6.74215   12.15935    4.22306
      14      444        2     0.10752   17.47255   12.16357    4.22253
      15      444        2     0.10752    3.92915   11.78825    5.40971
      16      444        2     0.10752   14.66067   11.78552    5.40997
      17      444        2     0.10752    3.75791   10.60697    7.46841
      18      444        2     0.10752   14.49061   10.60470    7.46737
      19      444        2     0.10752    4.73461    9.52191    9.45877
      20      444        2     0.10752   15.46727    9.52104    9.45877
      21      444        2     0.10752    8.67393   10.61093    8.08821
      22      444        2     0.10752   19.40611   10.61483    8.09056
      23      444        2     0.10752    7.69980   11.68307    6.09812
      24      444        2     0.10752   18.43192   11.68530    6.09942
      25      444        2     0.10752    5.79061    8.41755   11.10062
      26      444        2     0.10752   16.52299    8.41850   11.10166
      27      444        2     0.10752    8.53005    9.38263   10.06553
      28      444        2     0.10752   19.26228    9.38598   10.06814
      29      444        2     0.10752    7.51613    2.00744   13.25506
      30      444        2     0.10752   18.26066    2.00081   13.25063
      31      444        2     0.10752   10.34635    3.09795   13.82165
      32      444        2     0.10752   21.08759    3.09738   13.82060
      33      444        2     0.10752    1.39092    1.67144   13.75513
      34      444        2     0.10752   12.15465    1.66486   13.75513
      35      444        2     0.10752    8.29955    0.01668   12.76699
      36      444        2     0.10752   19.05408    0.00510   12.76386
      37      444        2     0.10752    6.01741    9.25532   14.86456
      38      444        2     0.10752   16.76775    9.25871   14.87317
      39      444        2     0.10752    6.01476   11.65750   15.67271
      40      444        2     0.10752   16.77572   11.66014   15.68288
      41      444        2     0.10752    8.16071    0.22994   16.43885
      42      444        2     0.10752   18.92765    0.22459   16.44355
      43      444        2     0.10752    2.96853    8.67874   16.17590
      44      444        2     0.10752   13.72677    8.70234   16.19025
      45      444        2     0.10752    2.67273    6.39215   15.26864
      46      444        2     0.10752   13.44222    6.41485   15.28246
      47      444        2     0.10752    0.36621    5.60483   14.63318
      48      444        2     0.10752   11.13927    5.61885   14.64101
      49      444        2     0.10752   10.65805   -0.05389   16.84814
      50      444        2     0.10752   21.42486   -0.06814   16.84579
      51      444        2     0.10752    1.91578   10.92283   16.76962
      52      444        2     0.10752   12.66509   10.94388   16.77901
      53      444        2     0.10752    6.73844    6.24581    8.81549
      54      444        2     0.10752   17.47477    6.24255    8.81966
      55      444        2     0.10752    3.92324    6.61998    7.63484
      56      444        2     0.10752   14.66288    6.62308    7.63406
      57      444        2     0.10752    3.75024    7.80437    5.57640
      58      444        2     0.10752   14.49254    7.80816    5.57900
      59      444        2     0.10752    4.72609    8.88796    3.58395
      60      444        2     0.10752   15.46866    8.89134    3.57378
      61      444        2     0.10752    8.66505    7.78784    4.94720
      62      444        2     0.10752   19.40702    7.78673    4.94825
      63      444        2     0.10752    7.69181    6.71689    6.93834
      64      444        2     0.10752   18.43334    6.71677    6.93887
      65      444        2     0.10752    5.78424    9.98869    1.93819
      66      444        2     0.10752   16.52384    9.98897    1.94080
      67      444        2     0.10752    8.52190    9.01985    2.97432
      68      444        2     0.10752   19.26310    9.01990    2.97328
      69      444        2     0.10752    7.51681    3.44483   25.87910
      70      444        2     0.10752   18.26248    3.45179   25.87806
      71      444        2     0.10752   10.34768    2.34992   25.32477
      72      444        2     0.10752   21.08905    2.35510   25.30677
      73      444        2     0.10752    1.39269    3.78059   25.37408
      74      444        2     0.10752   12.15527    3.78519   25.37590
      75      444        2     0.10752    8.30111    5.94890    0.28277
      76      444        2     0.10752   19.05461    5.96070    0.27521
      77      444        2     0.10752    6.02262    8.63839   24.26307
      78      444        2     0.10752   16.76801    8.63819   24.25212
      79      444        2     0.10752    6.02192    6.23677   23.45337
      80      444        2     0.10752   16.77479    6.23727   23.44085
      81      444        2     0.10752    8.17103    5.22503   22.68513
      82      444        2     0.10752   18.92894    5.22980   22.68096
      83      444        2     0.10752    2.96930    9.21470   22.95226
      84      444        2     0.10752   13.72891    9.20290   22.92617
      85      444        2     0.10752    2.67415   11.50152   23.85952
      86      444        2     0.10752   13.44243   11.48952   23.81648
      87      444        2     0.10752    0.36525   -0.15282   24.49498
      88      444        2     0.10752   11.13789   -0.16171   24.48481
      89      444        2     0.10752   10.66787    5.51193   22.27428
      90      444        2     0.10752   21.42677    5.52091   22.28080
      91      444        2     0.10752    1.91597    6.97099   22.35828
      92      444        2     0.10752   12.67018    6.95971   22.33976
      93      444        2     0.10752    4.04218   -0.23362   21.86004
      94      444        2     0.10752   14.77256   -0.22943   21.86186
      95      444        2     0.10752    6.85406    0.14440   20.67521
      96      444        2     0.10752   17.58557    0.14173   20.67312
      97      444        2     0.10752    7.02410    1.32523   18.61781
      98      444        2     0.10752   17.75680    1.32299   18.61677
      99      444        2     0.10752    6.04744    2.40890   16.62589
     100      444        2     0.10752   16.78009    2.40806   16.62563
     101      444        2     0.10752    2.10862    1.31511   17.99462
     102      444        2     0.10752   12.84078    1.31902   17.99671
     103      444        2     0.10752    3.08277    0.24465   19.98576
     104      444        2     0.10752   13.81491    0.24687   19.98706
     105      444        2     0.10752    4.99172    3.51136   14.98352
     106      444        2     0.10752   15.72412    3.51230   14.98456
     107      444        2     0.10752    2.25245    2.54396   16.01704
     108      444        2     0.10752   12.98468    2.54732   16.01965
     109      444        2     0.10752    3.25407    9.92895   12.83455
     110      444        2     0.10752   13.99862    9.92233   12.83012
     111      444        2     0.10752    0.42712    8.83244   12.26458
     112      444        2     0.10752   11.16836    8.83188   12.26301
     113      444        2     0.10752    9.36008   10.26496   12.32875
     114      444        2     0.10752   20.12381   10.25838   12.33005
     115      444        2     0.10752    2.46067   11.92475   13.31975
     116      444        2     0.10752   13.21516   11.91310   13.31845
     117      444        2     0.10752    4.74698    2.67110   11.21175
     118      444        2     0.10752   15.49721    2.67451   11.22035
     119      444        2     0.10752    4.73896    0.26963   10.40230
     120      444        2     0.10752   15.49975    0.27220   10.41273
     121      444        2     0.10752    2.58702   11.70515    9.64163
     122      444        2     0.10752   13.35377   11.69977    9.64659
     123      444        2     0.10752    7.78783    3.22755    9.89493
     124      444        2     0.10752   18.54618    3.25109    9.90954
     125      444        2     0.10752    8.07249    5.51511   10.80272
     126      444        2     0.10752   18.84202    5.53773   10.81654
     127      444        2     0.10752   10.37544    6.31104   11.44391
     128      444        2     0.10752   21.14858    6.32504   11.45174
     129      444        2     0.10752    0.08978   11.99788    9.23965
     130      444        2     0.10752   10.85644   11.98366    9.23730
     131      444        2     0.10752    8.84944    0.98595    9.30617
     132      444        2     0.10752   19.59888    1.00695    9.31530
     133      444        2     0.10752    4.03987    5.68733   17.26473
     134      444        2     0.10752   14.77622    5.68401   17.26891
     135      444        2     0.10752    6.85180    5.30682   18.45112
     136      444        2     0.10752   17.59149    5.31000   18.45034
     137      444        2     0.10752    7.02219    4.12179   20.50591
     138      444        2     0.10752   17.76455    4.12561   20.50878
     139      444        2     0.10752    6.04611    3.03886   22.49836
     140      444        2     0.10752   16.78872    3.04201   22.50123
     141      444        2     0.10752    2.10773    4.14317   21.13693
     142      444        2     0.10752   12.84975    4.14208   21.13798
     143      444        2     0.10752    3.08141    5.21312   19.14501
     144      444        2     0.10752   13.82299    5.21303   19.14657
     145      444        2     0.10752    4.99083    1.94087   24.14386
     146      444        2     0.10752   15.73054    1.94122   24.14699
     147      444        2     0.10752    2.25163    2.91002   23.11164
     148      444        2     0.10752   12.99291    2.91005   23.11086
     149      444        2     0.10752    3.25233    8.47801    0.20712
     150      444        2     0.10752   13.99790    8.48546    0.18260
     151      444        2     0.10752    0.42579    9.57468    0.77841
     152      444        2     0.10752   11.16707    9.57993    0.76041
     153      444        2     0.10752    9.35948    8.14465    0.70928
     154      444        2     0.10752   20.12214    8.14919    0.71110
     155      444        2     0.10752    2.46021    5.96908   25.80997
     156      444        2     0.10752   13.21362    5.98095   25.80241
     157      444        2     0.10752    4.74672    3.29171    1.83280
     158      444        2     0.10752   15.49211    3.29154    1.82210
     159      444        2     0.10752    4.73996    5.69256    2.64433
     160      444        2     0.10752   15.49279    5.69315    2.63181
     161      444        2     0.10752    2.58581    6.69997    3.40448
     162      444        2     0.10752   13.34366    6.70484    3.40004
     163      444        2     0.10752    7.78584    2.72691    3.15901
     164      444        2     0.10752   18.54547    2.71505    3.13292
     165      444        2     0.10752    8.07232    0.44075    2.24783
     166      444        2     0.10752   18.84062    0.42828    2.22565
     167      444        2     0.10752   10.37688   12.09160    1.60011
     168      444        2     0.10752   21.14952   12.08265    1.59020
     169      444        2     0.10752    0.08800    6.40881    3.80464
     170      444        2     0.10752   10.84682    6.41789    3.81090
     171      444        2     0.10752    8.84453    4.97008    3.74542
     172      444        2     0.10752   19.59880    4.95872    3.72716
     173      444        3     0.70301    4.94160    0.19886    3.08623
     174      444        3     0.70301   15.67127    0.19957    3.08597
     175      444        4    -0.12355    5.65583   12.18696    4.30992
     176      444        4    -0.12355   16.38612   12.18835    4.30992
     177      444        4    -0.12355    5.02294   11.76115    5.42327
     178      444        4    -0.12355   15.75452   11.76062    5.42327
     179      444        3     0.02345    5.64752   11.21536    6.62140
     180      444        3     0.02345   16.37981   11.21552    6.62140
     181      444        3    -0.12355    4.84016   10.61395    7.61214
     182      444        3    -0.12355   15.57275   10.61307    7.61188
     183      444        3    -0.12355    5.38829   10.00525    8.73280
     184      444        3    -0.12355   16.12086   10.00518    8.73280
     185      444        3     0.02345    6.78578    9.97743    8.92296
     186      444        3     0.02345   17.51822    9.97914    8.92427
     187      444        3    -0.12355    7.59033   10.61575    7.95100
     188      444        3    -0.12355   18.32256   10.61825    7.95465
     189      444        3    -0.12355    7.04191   11.21588    6.83087
     190      444        3    -0.12355   17.77412   11.21804    6.80844
     191      444        3     0.70301    7.70070    7.96127   12.07441
     192      444        3     0.70301   18.43277    7.96302   12.07624
     193      444        4    -0.12355    6.86572    8.57420   11.01506
     194      444        4    -0.12355   17.59801    8.57611   11.01662
     195      444        4    -0.12355    7.43825    9.30462   10.03423
     196      444        4    -0.12355   18.17054    9.30708   10.03527
     197      444        3     0.70301    7.88385    4.11007   13.70269
     198      444        3     0.70301   18.62008    4.10520   13.70139
     199      444        4    -0.12355    8.31700    2.70439   13.50835
     200      444        4    -0.12355   19.05923    2.70007   13.50522
     201      444        4    -0.12355    9.61185    2.32788   13.57331
     202      444        4    -0.12355   20.35511    2.32550   13.57122
     203      444        3     0.02345   10.15573    1.00411   13.30671
     204      444        3     0.02345   20.90484    1.00283   13.30541
     205      444        3    -0.12355    0.78802    0.81572   13.44888
     206      444        3    -0.12355   11.54888    0.81169   13.44940
     207      444        3    -0.12355    9.37723   -0.09462   12.89116
     208      444        3    -0.12355   20.13230   -0.10060   12.89038
     209      444        3     0.18624    6.92580    9.73810   15.23211
     210      444        3     0.18624   17.67889    9.73813   15.23681
     211      444        3    -0.12355    6.93556   11.07451   15.67505
     212      444        3    -0.12355   17.69452   11.07405   15.68210
     213      444        3    -0.12355    8.12446   11.63272   16.11043
     214      444        3    -0.12355   18.88670   11.62777   16.11434
     215      444        3     0.02345    9.30434   10.85657   16.11147
     216      444        3     0.02345   20.06393   10.84760   16.11147
     217      444        3     0.15101    9.19339    9.51569   15.65575
     218      444        3     0.15101   19.94717    9.50742   15.65497
     219      444        3     0.15101   10.36158    8.67298   15.60984
     220      444        3     0.15101   21.11217    8.66068   15.60593
     221      444        3     0.02345    0.85768    9.17928   16.01078
     222      444        3     0.02345   11.61510    9.19591   16.01887
     223      444        3    -0.12355    1.97559    8.32140   15.89757
     224      444        3    -0.12355   12.73595    8.34145   15.90905
     225      444        3    -0.12355    1.80971    7.04165   15.40533
     226      444        3    -0.12355   12.57601    7.06078   15.41706
     227      444        3     0.18624    0.52459    6.60483   15.03569
     228      444        3     0.18624   11.29364    6.61947   15.04377
     229      444        3    -0.12355   10.58380   11.35050   16.52102
     230      444        3    -0.12355   21.34614   11.33689   16.51789
     231      444        3    -0.12355    0.94071   10.53409   16.47120
     232      444        3    -0.12355   11.69224   10.55149   16.47824
     233      444        3     0.70301    4.94190    5.76549    9.95571
     234      444        3     0.70301   15.67499    5.76395    9.95597
     235      444        4    -0.12355    5.65191    6.21924    8.73097
     236      444        4    -0.12355   16.38835    6.21820    8.73306
     237      444        4    -0.12355    5.01703    6.64580    7.61893
     238      444        4    -0.12355   15.75674    6.64719    7.61997
     239      444        3     0.02345    5.63990    7.19060    6.41949
     240      444        3     0.02345   16.38163    7.19219    6.42158
     241      444        3    -0.12355    4.83220    7.79458    5.42849
     242      444        3    -0.12355   15.57442    7.79723    5.43292
     243      444        3    -0.12355    5.37990    8.40243    4.30914
     244      444        3    -0.12355   16.12219    8.40468    4.31149
     245      444        3     0.02345    6.77712    8.42689    4.11663
     246      444        3     0.02345   17.51935    8.42772    4.11819
     247      444        3    -0.12355    7.58172    7.78582    5.08441
     248      444        3    -0.12355   18.32369    7.78592    5.08572
     249      444        3    -0.12355    7.03385    7.18642    6.20742
     250      444        3    -0.12355   17.77558    7.18696    6.20846
     251      444        3     0.70301    7.69562   10.44388    0.96648
     252      444        3     0.70301   18.43357   10.44424    0.96518
     253      444        4    -0.12355    6.85911    9.83106    2.02479
     254      444        4    -0.12355   17.59885    9.83115    2.02584
     255      444        4    -0.12355    7.43019    9.09924    3.00536
     256      444        4    -0.12355   18.17145    9.09959    3.00589
     257      444        3     0.70301    7.88279    1.33964   25.44190
     258      444        3     0.70301   18.62086    1.34740   25.42677
     259      444        4    -0.12355    8.31778    2.74548   25.63285
     260      444        4    -0.12355   19.06072    2.75237   25.62294
     261      444        4    -0.12355    9.61296    3.12137   25.56816
     262      444        4    -0.12355   20.35661    3.12690   25.55642
     263      444        3     0.02345   10.15705    4.44669   25.82797
     264      444        3     0.02345   20.90646    4.44955   25.82249
     265      444        3    -0.12355    0.78977    4.63648   25.67902
     266      444        3    -0.12355   11.54983    4.63929   25.67902
     267      444        3    -0.12355    9.37844    6.05986    0.15521
     268      444        3    -0.12355   20.13297    6.06599    0.15104
     269      444        3     0.18624    6.93123    8.15690   23.89448
     270      444        3     0.18624   17.67903    8.15846   23.88744
     271      444        3    -0.12355    6.94203    6.82079   23.45076
     272      444        3    -0.12355   17.69390    6.82281   23.44267
     273      444        3    -0.12355    8.13129    6.26413   23.01434
     274      444        3    -0.12355   18.88598    6.26855   23.01043
     275      444        3     0.02345    9.31025    7.04165   23.01225
     276      444        3     0.02345   20.06377    7.04782   23.01486
     277      444        3     0.15101    9.19804    8.38230   23.46850
     278      444        3     0.15101   19.94763    8.38782   23.47189
     279      444        3     0.15101   10.36483    9.22676   23.51206
     280      444        3     0.15101   21.11298    9.23393   23.52171
     281      444        3     0.02345    0.85838    8.71491   23.11686
     282      444        3     0.02345   11.61840    8.70602   23.09912
     283      444        3    -0.12355    1.97648    9.57243   23.23033
     284      444        3    -0.12355   12.73808    9.56225   23.20920
     285      444        3    -0.12355    1.81100   10.85223   23.72257
     286      444        3    -0.12355   12.57708   10.84210   23.70275
     287      444        3     0.18624    0.52592   11.28936   24.09221
     288      444        3     0.18624   11.29484   11.28102   24.07734
     289      444        3    -0.12355   10.58991    6.54960   22.60114
     290      444        3    -0.12355   21.34595    6.55794   22.60896
     291      444        3    -0.12355    0.94092    7.36013   22.65618
     292      444        3    -0.12355   11.69706    7.35056   22.64001
     293      444        3     0.70301    5.84336   11.73018   22.99921
     294      444        3     0.70301   16.57302   11.73094   22.99895
     295      444        4    -0.12355    5.12858   -0.25851   21.77526
     296      444        4    -0.12355   15.85890   -0.25706   21.77526
     297      444        4    -0.12355    5.76021    0.16928   20.66191
     298      444        4    -0.12355   16.49179    0.16879   20.66191
     299      444        3     0.02345    5.13490    0.71441   19.46378
     300      444        3     0.02345   15.86719    0.71460   19.46378
     301      444        3    -0.12355    5.94196    1.31685   18.47330
     302      444        3    -0.12355   16.67455    1.31601   18.47303
     303      444        3    -0.12355    5.39385    1.92475   17.35212
     304      444        3    -0.12355   16.12642    1.92469   17.35238
     305      444        3     0.02345    3.99649    1.95077   17.16091
     306      444        3     0.02345   14.72893    1.95249   17.16222
     307      444        3    -0.12355    3.19215    1.31169   18.13027
     308      444        3    -0.12355   13.92438    1.31423   18.13183
     309      444        3    -0.12355    3.74059    0.71236   19.25327
     310      444        3    -0.12355   14.47277    0.71406   19.25431
     311      444        3     0.70301    3.08187    3.96672   14.00894
     312      444        3     0.70301   13.81399    3.96850   14.01077
     313      444        4    -0.12355    3.91672    3.35374   15.06856
     314      444        4    -0.12355   14.64901    3.35569   15.07012
     315      444        4    -0.12355    3.34419    2.62286   16.04887
     316      444        4    -0.12355   14.07648    2.62527   16.05095
     317      444        3     0.70301    2.89459    7.82457   12.38379
     318      444        3     0.70301   13.63083    7.81967   12.38222
     319      444        4    -0.12355    2.45550    9.22974   12.57996
     320      444        4    -0.12355   13.19773    9.22538   12.57682
     321      444        4    -0.12355    1.15962    9.60431   12.51396
     322      444        4    -0.12355   11.90286    9.60191   12.51187
     323      444        3     0.02345    0.60989   10.92696   12.78003
     324      444        3     0.02345   11.35900   10.92567   12.77873
     325      444        3    -0.12355    9.96585   11.11812   12.63578
     326      444        3    -0.12355   20.72671   11.11409   12.63656
     327      444        3    -0.12355    1.38243   12.03040   13.19480
     328      444        3    -0.12355   12.13748   12.02441   13.19402
     329      444        3     0.18624    3.83584    2.19171   10.84680
     330      444        3     0.18624   14.58878    2.19165   10.85306
     331      444        3    -0.12355    3.82019    0.85574   10.40308
     332      444        3    -0.12355   14.57900    0.85527   10.40830
     333      444        3    -0.12355    2.62799    0.30200    9.97084
     334      444        3    -0.12355   13.39005    0.29698    9.97501
     335      444        3     0.02345    1.45076    1.08217    9.97371
     336      444        3     0.02345   12.21021    1.07320    9.97371
     337      444        3     0.15101    1.56754    2.42236   10.43021
     338      444        3     0.15101   12.32118    2.41411   10.42917
     339      444        3     0.15101    0.40254    3.26912   10.47925
     340      444        3     0.15101   11.15304    3.25686   10.47430
     341      444        3     0.02345    9.89950    2.73393   10.06631
     342      444        3     0.02345   20.65701    2.75052   10.07440
     343      444        3    -0.12355    8.77867    3.58847   10.17587
     344      444        3    -0.12355   19.53912    3.60842   10.18761
     345      444        3    -0.12355    8.93865    4.86912   10.66811
     346      444        3    -0.12355   19.70502    4.88821   10.67985
     347      444        3     0.18624   10.22102    5.31046   11.04114
     348      444        3     0.18624   20.99016    5.32502   11.04949
     349      444        3    -0.12355    0.16853    0.59291    9.56572
     350      444        3    -0.12355   10.93072    0.57924    9.56442
     351      444        3    -0.12355    9.82232    1.37838    9.60694
     352      444        3    -0.12355   20.57398    1.39568    9.61398
     353      444        3     0.70301    5.83961    6.16575   16.12895
     354      444        3     0.70301   16.57272    6.16429   16.12947
     355      444        4    -0.12355    5.12629    5.71157   17.35212
     356      444        4    -0.12355   15.86275    5.71062   17.35421
     357      444        4    -0.12355    5.75794    5.28272   18.46364
     358      444        4    -0.12355   16.49770    5.28412   18.46625
     359      444        3     0.02345    5.13312    4.73775   19.66360
     360      444        3     0.02345   15.87487    4.73933   19.66568
     361      444        3    -0.12355    5.94033    4.13269   20.65226