Created on Tue Feb 06 14:47:46 2018 

        1296 atoms
        1440 bonds
        2464 angles
        3296 dihedrals
        1920 impropers

           7 atom types
          10 bond types
          19 angle types
           5 dihedral types
           1 improper types
           0.000000  26.508000 xlo xhi
           0.000000  26.212081 ylo yhi
           0.000000  26.127277 zlo zhi
           2.899861  -2.769078  -1.420892 xy xz yz

Masses

    1    65.380000000 # Zn3+2
    2     1.007940000 # H_
    3    12.010700000 # C_R
    4    12.010700000 # C_3
    5    14.006700000 # N_R
    6    15.999400000 # O_R
    7    18.998403200 # F_

Bond Coeffs

    1      165.837318        1.881712  # Zn3+2 N_R
    2      160.291409        1.840266  # Zn3+2 O_R
    3      357.440381        1.081418  # H_ C_R
    4      462.655054        1.379256  # C_R C_R
    5      663.718927        1.345073  # C_R N_R
    6      391.669513        1.458000  # C_R C_R
    7      646.680887        1.311940  # C_R O_R
    8      369.943935        1.486000  # C_R C_3
    9      417.765733        1.381520  # C_3 F_
   10      349.795899        1.514000  # C_3 C_3

Angle Coeffs

    1                      fourier       53.299639        0.343737        0.374972        0.281246 # N_R Zn3+2 O_R
    2                      fourier       55.784590        0.343737        0.374972        0.281246 # N_R Zn3+2 N_R
    3                      fourier       50.968023        0.343737        0.374972        0.281246 # O_R Zn3+2 O_R
    4              cosine/periodic      165.695700              -1               3 # C_R C_R N_R
    5              cosine/periodic       76.817955              -1               3 # C_R C_R H_
    6              cosine/periodic      109.704024              -1               3 # H_ C_R N_R
    7              cosine/periodic      117.010657              -1               3 # C_R C_R C_R
    8              cosine/periodic      101.626578              -1               3 # C_R C_R C_R
    9              cosine/periodic      137.761490              -1               3 # O_R C_R C_R
   10              cosine/periodic      217.450257              -1               3 # O_R C_R O_R
   11              cosine/periodic       96.739224              -1               3 # C_3 C_R C_R
   12                      fourier      121.635137        0.343737        0.374972        0.281246 # F_ C_3 F_
   13                      fourier      105.865807        0.343737        0.374972        0.281246 # F_ C_3 C_3
   14                      fourier       97.888497        0.343737        0.374972        0.281246 # C_3 C_3 C_R
   15                      fourier       93.452663        0.343737        0.374972        0.281246 # C_3 C_3 C_3
   16                      fourier      102.595193        0.343737        0.374972        0.281246 # C_R C_3 C_R
   17              cosine/periodic       36.261492              -1               3 # Zn3+2 N_R C_R
   18              cosine/periodic      132.654363              -1               3 # C_R N_R C_R
   19              cosine/periodic       50.430477              -1               3 # Zn3+2 O_R C_R

Dihedral Coeffs

    1        1.497136              -1               2 # H_ C_R C_R H_
    2        0.555556              -1               2 # C_R C_R C_R C_R
    3        2.245703              -1               2 # C_R C_R O_R Zn3+2
    4        0.083333               1               3 # C_R C_R C_3 C_3
    5        0.066219               1               3 # F_ C_3 C_3 C_R

Improper Coeffs

    1        2.000000        1.000000       -1.000000        0.000000               0 # N_R C_R C_R H_

Pair Coeffs

    1        0.124000        2.461553 # Zn3+2 Zn3+2
    2        0.044000        2.571134 # H_ H_
    3        0.105000        3.430851 # C_R C_R
    4        0.105000        3.430851 # C_3 C_3
    5        0.069000        3.260689 # N_R N_R
    6        0.060000        3.118146 # O_R O_R
    7        0.050000        2.996983 # F_ F_

Atoms

       1      444        1     0.83971    1.47353    1.57968    9.46748
       2      444        1     0.83971    5.14000    9.38628    2.07699
       3      444        1     0.83971   11.79425   10.81990    3.59537
       4      444        1     0.83971    8.13254    3.00941   10.97359
       5      444        2     0.10394    4.49437    1.89647    9.55318
       6      444        2     0.10394    6.46502    1.08140    8.36622
       7      444        2     0.10394    5.22299   11.96120    5.77165
       8      444        2     0.10394    1.91729   -0.21268    7.06482
       9      444        2     0.10394   12.42393    2.42457    7.70232
      10      444        2     0.10394   11.76331    4.34904    6.31862
      11      444        2     0.10394    1.97059    6.44663    7.85843
      12      444        2     0.10394    2.48512    4.40627    9.18295
      13      444        2     0.10394    1.10843   10.80917    9.16493
      14      444        2     0.10394   12.78846    8.92085    9.16806
      15      444        2     0.10394    9.56379   11.66248   10.04228
      16      444        2     0.10394    2.12924    9.46724    2.37014
      17      444        2     0.10394   13.41059    8.31135    1.51303
      18      444        2     0.10394    1.45789    5.10461   12.23619
      19      444        2     0.10394    4.70223    7.06785    0.15467
      20      444        2     0.10394    7.47202    7.59475    2.82109
      21      444        2     0.10394    8.15649    6.11985    4.66764
      22      444        2     0.10394    4.66674    7.47955    6.84077
      23      444        2     0.10394    4.13462    8.90922    4.88162
      24      444        2     0.10394    5.61569    8.60562   11.25655
      25      444        2     0.10394    7.20108    8.68543    9.37773
      26      444        2     0.10394   10.40974    9.43021   12.17453
      27      444        2     0.10394    8.77881   10.50719    3.51281
      28      444        2     0.10394    6.80902   11.31607    4.70735
      29      444        2     0.10394    8.05247    0.43692    7.29865
      30      444        2     0.10394   11.35801   12.61324    6.00222
      31      444        2     0.10394    0.86079    9.96716    5.34198
      32      444        2     0.10394    1.53041    8.03864    6.71536
      33      444        2     0.10394   11.29318    5.95915    5.21958
      34      444        2     0.10394   10.77746    7.99762    3.89545
      35      444        2     0.10394   12.18721    1.59235    3.92301
      36      444        2     0.10394    0.51424    3.47685    3.91073
      37      444        2     0.10394    3.72340    0.72513    3.01509
      38      444        2     0.10394   11.14663    2.91956   10.68580
      39      444        2     0.10394   -0.13303    4.07056   11.53519
      40      444        2     0.10394   11.82016    7.27047    0.83346
      41      444        2     0.10394    8.57564    5.31244   12.91027
      42      444        2     0.10394    5.80251    4.78103   10.21446
      43      444        2     0.10394    5.11820    6.25220    8.36478
      44      444        2     0.10394    8.64315    4.93749    6.22077
      45      444        2     0.10394    9.16507    3.49659    8.17640
      46      444        2     0.10394    7.68197    3.76541    1.78632
      47      444        2     0.10394    6.10702    3.67723    3.66984
      48      444        2     0.10394    2.88174    2.95297    0.88598
      49      444        3     0.18167    4.37217    1.24694    8.68836
      50      444        3    -0.15533    5.48593    0.76529    8.01258
      51      444        3     0.02923    5.32960   -0.10399    6.92099
      52      444        3    -0.15533    5.46054   12.63898    6.58956
      53      444        3     0.18167    2.94482    0.05569    7.30780
      54      444        3     0.18167   -0.22556    3.33176    7.69239
      55      444        3    -0.15533   12.66347    4.43048    6.92373
      56      444        3     0.02923    0.18728    5.60215    6.93601
      57      444        3    -0.15533    1.31611    5.58224    7.76973
      58      444        3     0.18167    1.62971    4.44887    8.50704
      59      444        3     0.69207   -0.79159    0.27252    9.55592
      60      444        3     0.02923   12.87156   12.29919    9.52705
      61      444        3    -0.15533   13.30122   10.98305    9.33632
      62      444        3    -0.15533   12.40688    9.91959    9.35670
      63      444        3     0.02923   11.04777   10.14494    9.61079
      64      444        3    -0.15533   10.61409   11.46183    9.83156
      65      444        3     0.02923   11.50309   12.54301    9.76102
      66      444        3     0.69207    9.49687    0.84371    9.78858
      67      444        4     0.69661   10.64511    7.59527    9.61575
      68      444        3     0.18167    2.25011    8.62977    1.68390
      69      444        3    -0.15533    1.13524    7.97336    1.17873
      70      444        3     0.02923    1.28871    6.91896    0.26428
      71      444        3    -0.15533    1.22302    5.89453   12.94724
      72      444        3     0.18167    3.67500    7.30089    0.43384
      73      444        3     0.18167    6.86704    7.52468    3.72536
      74      444        3    -0.15533    7.24552    6.70322    4.78129
      75      444        3     0.02923    6.46727    6.63649    5.95114
      76      444        3    -0.15533    5.32418    7.45053    5.97400
      77      444        3     0.18167    4.99845    8.24374    4.88319
      78      444        3     0.69207    7.43939    9.58597    0.79009
      79      444        3     0.02923    7.09764    8.89391   12.77154
      80      444        3    -0.15533    6.67640    8.76502   11.44479
      81      444        3    -0.15533    7.57735    8.82811   10.38638
      82      444        3     0.02923    8.93584    9.06893   10.62910
      83      444        3    -0.15533    9.36063    9.23036   11.95780
      84      444        3     0.02923    8.46690    9.11126   13.03046
      85      444        3     0.69207   10.41194    9.77154    1.37103
      86      444        4     0.69661    9.37542    9.15951    8.07986
      87      444        3     0.18167    8.90155   11.15453    4.37945
      88      444        3    -0.15533    7.78861   11.63346    5.05850
      89      444        3     0.02923    7.94570   12.50191    6.15075
      90      444        3    -0.15533    7.80260   -0.35243    6.48048
      91      444        3     0.18167   10.33028   12.34487    5.75976
      92      444        3     0.18167   13.50686    9.06252    5.35792
      93      444        3    -0.15533    0.62223    7.96178    6.12162
      94      444        3     0.02923   13.09283    6.79377    6.11875
      95      444        3    -0.15533   11.95475    6.81906    5.29796
      96      444        3     0.18167   11.63865    7.95327    4.56339
      97      444        3     0.69207   14.07957   12.12289    3.51529
      98      444        3     0.02923    0.41627    0.09765    3.55004
      99      444        3    -0.15533   -0.00715    1.41516    3.74613
     100      444        3    -0.15533    0.89061    2.47652    3.71987
     101      444        3     0.02923    2.24719    2.24733    3.45533
     102      444        3    -0.15533    2.67493    0.92900    3.23325
     103      444        3     0.02923    1.78322   -0.14926    3.30876
     104      444        3     0.69207    3.79096   11.55112    3.27453
     105      444        4     0.69661    2.66960    4.79712    3.44606
     106      444        3     0.18167   11.02629    3.75444   11.37412
     107      444        3    -0.15533   12.14164    4.40810   11.88256
     108      444        3     0.02923   11.98907    5.45998   12.80001
     109      444        3    -0.15533   12.06788    6.48998    0.00000
     110      444        3     0.18167    9.60270    5.07984   12.63032
     111      444        3     0.18167    6.41268    4.85735    9.31437
     112      444        3    -0.15533    6.03649    5.67912    8.25818
     113      444        3     0.02923    6.82507    5.75748    7.09591
     114      444        3    -0.15533    7.97576    4.95375    7.07971
     115      444        3     0.18167    8.29670    4.15627    8.16869
     116      444        3     0.69207    5.84466    2.80236   12.25395
     117      444        3     0.02923    6.19147    3.48819    0.27630
     118      444        3    -0.15533    6.62029    3.60858    1.60108
     119      444        3    -0.15533    5.72411    3.54138    2.66302
     120      444        3     0.02923    4.36298    3.30854    2.42605
     121      444        3    -0.15533    3.93207    3.14972    1.09944
     122      444        3     0.02923    4.82171    3.27008    0.02430
     123      444        3     0.69207    2.87585    2.61427   11.68582
     124      444        4     0.69661    3.93522    3.22862    4.97071
     125      444        4    -0.30787    9.99814    9.01733    9.50928
     126      444        4    -0.30787    3.30448    3.36810    3.54874
     127      444        5    -0.32189    3.11234    0.91117    8.34087
     128      444        5    -0.32189    0.87655    3.32863    8.47216
     129      444        5    -0.32189    3.50953    8.29661    1.33288
     130      444        5    -0.32189    5.75159    8.28475    3.76298
     131      444        5    -0.32189   10.16169   11.49127    4.72551
     132      444        5    -0.32189   12.39664    9.07039    4.58965
     133      444        5    -0.32189    9.76711    4.08751   11.72723
     134      444        5    -0.32189    7.53347    4.10512    9.28250
     135      444        6    -0.63271   12.30780    1.30958   10.24150
     136      444        6    -0.57982    0.29609    0.04607    8.88314
     137      444        6    -0.63271    9.66309    1.55879    8.77276
     138      444        6    -0.57982    8.82953    1.16916   10.84543
     139      444        6    -0.63271    7.60513   10.21144    1.86092
     140      444        6    -0.57982    6.34621    8.93253    0.52777
     141      444        6    -0.63271   10.23893    8.72054    2.03179
     142      444        6    -0.57982   11.09768   10.79993    1.73746
     143      444        6    -0.63271    0.99896   11.08163    2.84160
     144      444        6    -0.57982   12.98016   12.35005    4.16978
     145      444        6    -0.63271    3.65025   10.83906    4.29624
     146      444        6    -0.57982    4.43886   11.22425    2.20658
     147      444        6    -0.63271    5.70489    2.13082   11.20756
     148      444        6    -0.57982    6.90984    3.51087   12.48975
     149      444        6    -0.63271    3.07633    3.65682   11.01892
     150      444        6    -0.57982    2.16686    1.60091   11.31494
     151      444        7    -0.20885   11.48037    7.51662   10.68214
     152      444        7    -0.20885   11.37812    7.23332    8.51945
     153      444        7    -0.20885    9.70640    6.62831    9.75998
     154      444        7    -0.20885    8.52897   10.21938    8.01454
     155      444        7    -0.20885    8.66501    8.06331    7.67227
     156      444        7    -0.20885   10.33522    9.34355    7.13836
     157      444        7    -0.20885    1.83536    4.87930    2.37889
     158      444        7    -0.20885    1.94008    5.16130    4.54419
     159      444        7    -0.20885    3.61154    5.76250    3.30314
     160      444        7    -0.20885    4.77617    2.16761    5.04557
     161      444        7    -0.20885    4.65817    4.32644    5.34394
     162      444        7    -0.20885    2.98514    3.05604    5.92462
     163      444        1     0.83971    0.08899    0.86923   22.53112
     164      444        1     0.83971    3.75546    8.67583   15.14063
     165      444        1     0.83971   10.40971   10.10946   16.65901
     166      444        1     0.83971    6.74801    2.29896   24.03723
     167      444        2     0.10394    3.10983    1.18603   22.61682
     168      444        2     0.10394    5.08048    0.37095   21.42985
     169      444        2     0.10394    3.83846   11.25075   18.83528
     170      444        2     0.10394    0.53275   -0.92312   20.12845
     171      444        2     0.10394   11.03939    1.71412   20.76596
     172      444        2     0.10394   10.37878    3.63860   19.38226
     173      444        2     0.10394    0.58605    5.73619   20.92207
     174      444        2     0.10394    1.10059    3.69582   22.24659
     175      444        2     0.10394   -0.27611   10.09872   22.22856
     176      444        2     0.10394   11.40392    8.21041   22.23170
     177      444        2     0.10394    8.17926   10.95204   23.10592
     178      444        2     0.10394    0.74470    8.75680   15.43377
     179      444        2     0.10394   12.02605    7.60090   14.57667
     180      444        2     0.10394    0.07335    4.39416   25.29983
     181      444        2     0.10394    3.31770    6.35741   13.21831
     182      444        2     0.10394    6.08749    6.88431   15.88473
     183      444        2     0.10394    6.77196    5.40940   17.73128
     184      444        2     0.10394    3.28220    6.76911   19.90441
     185      444        2     0.10394    2.75008    8.19877   17.94526
     186      444        2     0.10394    4.23115    7.89518   24.32018
     187      444        2     0.10394    5.81654    7.97498   22.44137
     188      444        2     0.10394    9.02520    8.71977   25.23817
     189      444        2     0.10394    7.39427    9.79674   16.57645
     190      444        2     0.10394    5.42448   10.60562   17.77099
     191      444        2     0.10394    6.66793   -0.27353   20.36229
     192      444        2     0.10394    9.97347   11.90279   19.06586
     193      444        2     0.10394   -0.52375    9.25672   18.40562
     194      444        2     0.10394    0.14587    7.32819   19.77900
     195      444        2     0.10394    9.90864    5.24871   18.28322
     196      444        2     0.10394    9.39292    7.28717   16.95909
     197      444        2     0.10394   10.80268    0.88191   16.98665
     198      444        2     0.10394   -0.87030    2.76641   16.97437
     199      444        2     0.10394    2.33886    0.01468   16.07873
     200      444        2     0.10394    9.76209    2.20911   23.74943
     201      444        2     0.10394   -1.51757    3.36012   24.59883
     202      444        2     0.10394   10.43562    6.56002   13.89710
     203      444        2     0.10394    7.19110    4.60199   25.97391
     204      444        2     0.10394    4.41797    4.07059   23.27810
     205      444        2     0.10394    3.73367    5.54176   21.42842
     206      444        2     0.10394    7.25861    4.22704   19.28441
     207      444        2     0.10394    7.78053    2.78614   21.24004
     208      444        2     0.10394    6.29743    3.05497   14.84996
     209      444        2     0.10394    4.72248    2.96678   16.73348
     210      444        2     0.10394    1.49720    2.24252   13.94961
     211      444        3     0.18167    2.98763    0.53650   21.75200
     212      444        3    -0.15533    4.10139    0.05484   21.07622
     213      444        3     0.02923    3.94506   -0.81444   19.98462
     214      444        3    -0.15533    4.07600   11.92853   19.65320
     215      444        3     0.18167    1.56028   -0.65475   20.37144
     216      444        3     0.18167   -1.61010    2.62131   20.75603
     217      444        3    -0.15533   11.27893    3.72004   19.98737
     218      444        3     0.02923   -1.19725    4.89171   19.99965
     219      444        3    -0.15533   -0.06843    4.87179   20.83337
     220      444        3     0.18167    0.24517    3.73843   21.57068
     221      444        3     0.69207   -2.17613   -0.43792   22.61956
     222      444        3     0.02923   11.48702   11.58874   22.59069
     223      444        3    -0.15533   11.91668   10.27260   22.39996
     224      444        3    -0.15533   11.02234    9.20914   22.42034
     225      444        3     0.02923    9.66323    9.43450   22.67443
     226      444        3    -0.15533    9.22955   10.75139   22.89520
     227      444        3     0.02923   10.11856   11.83257   22.82466
     228      444        3     0.69207    8.11233    0.13326   22.85222
     229      444        4     0.69661    9.26057    6.88483   22.67939
     230      444        3     0.18167    0.86558    7.91933   14.74754
     231      444        3    -0.15533   -0.24930    7.26291   14.24237
     232      444        3     0.02923   -0.09583    6.20851   13.32792
     233      444        3    -0.15533   -0.16152    5.18408   26.01088
     234      444        3     0.18167    2.29046    6.59044   13.49748
     235      444        3     0.18167    5.48250    6.81424   16.78900
     236      444        3    -0.15533    5.86098    5.99277   17.84493
     237      444        3     0.02923    5.08273    5.92604   19.01478
     238      444        3    -0.15533    3.93964    6.74009   19.03764
     239      444        3     0.18167    3.61392    7.53330   17.94683
     240      444        3     0.69207    6.05485    8.87553   13.85373
     241      444        3     0.02923    5.71310    8.18346   25.83517
     242      444        3    -0.15533    5.29187    8.05457   24.50843
     243      444        3    -0.15533    6.19281    8.11766   23.45002
     244      444        3     0.02923    7.55130    8.35848   23.69274
     245      444        3    -0.15533    7.97609    8.51992   25.02144
     246      444        3     0.02923    7.08236    8.40081   26.09410
     247      444        3     0.69207    9.02740    9.06109   14.43467
     248      444        4     0.69661    7.99088    8.44906   21.14350
     249      444        3     0.18167    7.51702   10.44409   17.44309
     250      444        3    -0.15533    6.40408   10.92301   18.12214
     251      444        3     0.02923    6.56116   11.79146   19.21439
     252      444        3    -0.15533    6.41806   -1.06288   19.54412
     253      444        3     0.18167    8.94574   11.63442   18.82340
     254      444        3     0.18167   12.12232    8.35207   18.42156
     255      444        3    -0.15533   -0.76231    7.25133   19.18526
     256      444        3     0.02923   11.70829    6.08332   19.18239
     257      444        3    -0.15533   10.57021    6.10862   18.36160
     258      444        3     0.18167   10.25411    7.24283   17.62703
     259      444        3     0.69207   12.69503   11.41245   16.57893
     260      444        3     0.02923   -0.96827   -0.61279   16.61368
     261      444        3    -0.15533   -1.39169    0.70471   16.80977
     262      444        3    -0.15533   -0.49393    1.76608   16.78351
     263      444        3     0.02923    0.86265    1.53689   16.51897
     264      444        3    -0.15533    1.29039    0.21856   16.29689
     265      444        3     0.02923    0.39868   -0.85971   16.37240
     266      444        3     0.69207    2.40642   10.84067   16.33817
     267      444        4     0.69661    1.28506    4.08667   16.50970
     268      444        3     0.18167    9.64175    3.04399   24.43776
     269      444        3    -0.15533   10.75710    3.69766   24.94619
     270      444        3     0.02923   10.60454    4.74954   25.86365
     271      444        3    -0.15533   10.68334    5.77953   13.06364
     272      444        3     0.18167    8.21817    4.36940   25.69396
     273      444        3     0.18167    5.02814    4.14690   22.37801
     274      444        3    -0.15533    4.65195    4.96867   21.32182
     275      444        3     0.02923    5.44053    5.04703   20.15955
     276      444        3    -0.15533    6.59122    4.24331   20.14335
     277      444        3     0.18167    6.91216    3.44582   21.23233
     278      444        3     0.69207    4.46012    2.09192   25.31759
     279      444        3     0.02923    4.80693    2.77775   13.33993
     280      444        3    -0.15533    5.23575    2.89814   14.66472
     281      444        3    -0.15533    4.33957    2.83093   15.72666
     282      444        3     0.02923    2.97844    2.59810   15.48969
     283      444        3    -0.15533    2.54753    2.43928   14.16307
     284      444        3     0.02923    3.43717    2.55963   13.08794
     285      444        3     0.69207    1.49131    1.90383   24.74946
     286      444        4     0.69661    2.55068    2.51818   18.03435
     287      444        4    -0.30787    8.61360    8.30688   22.57292
     288      444        4    -0.30787    1.91994    2.65766   16.61238
     289      444        5    -0.32189    1.72780    0.20072   21.40451
     290      444        5    -0.32189   -0.50798    2.61818   21.53580
     291      444        5    -0.32189    2.12499    7.58617   14.39652
     292      444        5    -0.32189    4.36705    7.57431   16.82662
     293      444        5    -0.32189    8.77715   10.78082   17.78915
     294      444        5    -0.32189   11.01210    8.35995   17.65329
     295      444        5    -0.32189    8.38258    3.37706   24.79087
     296      444        5    -0.32189    6.14893    3.39467   22.34614
     297      444        6    -0.63271   10.92326    0.59913   23.30514
     298      444        6    -0.57982   -1.08845   -0.66437   21.94678
     299      444        6    -0.63271    8.27856    0.84834   21.83639
     300      444        6    -0.57982    7.44499    0.45872   23.90907
     301      444        6    -0.63271    6.22059    9.50100   14.92455
     302      444        6    -0.57982    4.96167    8.22208   13.59141
     303      444        6    -0.63271    8.85439    8.01009   15.09543
     304      444        6    -0.57982    9.71314   10.08949   14.80110
     305      444        6    -0.63271   -0.38558   10.37118   15.90524
     306      444        6    -0.57982   11.59562   11.63961   17.23342
     307      444        6    -0.63271    2.26571   10.12861   17.35988
     308      444        6    -0.57982    3.05432   10.51380   15.27022
     309      444        6    -0.63271    4.32035    1.42038   24.27120
     310      444        6    -0.57982    5.52530    2.80042   25.55339
     311      444        6    -0.63271    1.69179    2.94638   24.08256
     312      444        6    -0.57982    0.78232    0.89047   24.37858
     313      444        7    -0.20885   10.09583    6.80618   23.74578
     314      444        7    -0.20885    9.99358    6.52288   21.58309
     315      444        7    -0.20885    8.32186    5.91787   22.82361
     316      444        7    -0.20885    7.14443    9.50893   21.07818
     317      444        7    -0.20885    7.28047    7.35286   20.73591
     318      444        7    -0.20885    8.95069    8.63310   20.20200
     319      444        7    -0.20885    0.45082    4.16885   15.44253
     320      444        7    -0.20885    0.55554    4.45086   17.60783
     321      444        7    -0.20885    2.22700    5.05205   16.36678
     322      444        7    -0.20885    3.39163    1.45717   18.10921
     323      444        7    -0.20885    3.27364    3.61599   18.40758
     324      444        7    -0.20885    1.60060    2.34559   18.98826
     325      444        1     0.83971    2.92346   14.68572    9.46748
     326      444        1     0.83971    6.58993   22.49232    2.07699
     327      444        1     0.83971   13.24418   23.92594    3.59537
     328      444        1     0.83971    9.58247   16.11545   10.97359
     329      444        2     0.10394    5.94430   15.00251    9.55318
     330      444        2     0.10394    7.91495   14.18744    8.36622
     331      444        2     0.10394    6.67293   25.06724    5.77165
     332      444        2     0.10394    3.36722   12.89336    7.06482
     333      444        2     0.10394   13.87386   15.53061    7.70232
     334      444        2     0.10394   13.21325   17.45508    6.31862
     335      444        2     0.10394    3.42052   19.55267    7.85843
     336      444        2     0.10394    3.93505   17.51231    9.18295
     337      444        2     0.10394    2.55836   23.91521    9.16493
     338      444        2     0.10394   14.23839   22.02689    9.16806
     339      444        2     0.10394   11.01372   24.76852   10.04228
     340      444        2     0.10394    3.57917   22.57328    2.37014
     341      444        2     0.10394   14.86052   21.41739    1.51303
     342      444        2     0.10394    2.90782   18.21065   12.23619
     343      444        2     0.10394    6.15216   20.17389    0.15467
     344      444        2     0.10394    8.92195   20.70079    2.82109
     345      444        2     0.10394    9.60642   19.22589    4.66764
     346      444        2     0.10394    6.11667   20.58560    6.84077
     347      444        2     0.10394    5.58455   22.01526    4.88162
     348      444        2     0.10394    7.06562   21.71166   11.25655
     349      444        2     0.10394    8.65101   21.79147    9.37773
     350      444        2     0.10394   11.85967   22.53625   12.17453
     351      444        2     0.10394   10.22874   23.61323    3.51281
     352      444        2     0.10394    8.25895   24.42211    4.70735
     353      444        2     0.10394    9.50240   13.54296    7.29865
     354      444        2     0.10394   12.80794   25.71928    6.00222
     355      444        2     0.10394    2.31072   23.07320    5.34198
     356      444        2     0.10394    2.98034   21.14468    6.71536
     357      444        2     0.10394   12.74311   19.06519    5.21958
     358      444        2     0.10394   12.22739   21.10366    3.89545
     359      444        2     0.10394   13.63714   14.69839    3.92301
     360      444        2     0.10394    1.96417   16.58290    3.91073
     361      444        2     0.10394    5.17333   13.83117    3.01509