Created on Tue Feb 06 15:49:22 2018 

        2352 atoms
        2808 bonds
        5472 angles
        6000 dihedrals
        3600 impropers

           5 atom types
           8 bond types
          12 angle types
           4 dihedral types
           1 improper types
           0.000000  31.236000 xlo xhi
           0.000000  37.564000 ylo yhi
           0.000000  27.665548 zlo zhi
           0.003934   0.437020  -0.001012 xy xz yz

Masses

    1   138.905470000 # La3+3
    2     1.007940000 # H_
    3    12.010700000 # C_R
    4    14.006700000 # N_R
    5    15.999400000 # O_R

Bond Coeffs

    1      174.315904        2.436167  # La3+3 O_R
    2       61.622038        3.886000  # La3+3 La3+3
    3      357.440381        1.081418  # H_ C_R
    4      646.680887        1.311940  # C_R O_R
    5      391.669513        1.458000  # C_R C_R
    6      462.655054        1.379256  # C_R C_R
    7      663.718927        1.345073  # C_R N_R
    8      929.109299        1.322497  # N_R N_R

Angle Coeffs

    1                      fourier       12.536185        0.343737        0.374972        0.281246 # O_R La3+3 O_R
    2                      fourier        4.678130        0.343737        0.374972        0.281246 # La3+3 La3+3 O_R
    3              cosine/periodic      217.450257              -1               3 # O_R C_R O_R
    4              cosine/periodic      137.761490              -1               3 # O_R C_R C_R
    5              cosine/periodic      101.626578              -1               3 # C_R C_R C_R
    6              cosine/periodic      117.010657              -1               3 # C_R C_R C_R
    7              cosine/periodic       76.817955              -1               3 # H_ C_R C_R
    8              cosine/periodic      143.630586              -1               3 # N_R C_R C_R
    9              cosine/periodic      234.844275              -1               3 # N_R C_R N_R
   10              cosine/periodic      184.094783              -1               3 # N_R N_R C_R
   11              cosine/periodic       51.047321              -1               3 # La3+3 O_R C_R
   12              cosine/periodic       25.472821              -1               3 # La3+3 O_R La3+3

Dihedral Coeffs

    1        2.245703              -1               2 # C_R C_R O_R La3+3
    2        0.555556              -1               2 # O_R C_R C_R C_R
    3        1.497136              -1               2 # C_R C_R C_R H_
    4        3.368555              -1               2 # C_R N_R N_R C_R

Improper Coeffs

    1        2.000000        1.000000       -1.000000        0.000000               0 # C_R C_R O_R O_R

Pair Coeffs

    1        0.017000        3.137745 # La3+3 La3+3
    2        0.044000        2.571134 # H_ H_
    3        0.105000        3.430851 # C_R C_R
    4        0.069000        3.260689 # N_R N_R
    5        0.060000        3.118146 # O_R O_R

Atoms

       1      444        1     2.24585    4.64029   16.84989   14.47130
       2      444        1     2.24585    9.84628   16.84989   14.47130
       3      444        1     2.24585    1.22323    7.45902   27.03145
       4      444        1     2.24585    6.42909    7.45881   27.03145
       5      444        1     2.24585    1.00386    1.93038   13.19730
       6      444        1     2.24585    6.20973    1.93042   13.19730
       7      444        1     2.24585    4.42098   11.32235    0.63769
       8      444        1     2.24585    9.62698   11.32254    0.63769
       9      444        2     0.09439    3.94014   12.68463   14.29313
      10      444        2     0.09439    9.14631   12.68477   14.29202
      11      444        2     0.09439    2.69818    9.70233   11.44634
      12      444        2     0.09439    7.90414    9.70251   11.44579
      13      444        2     0.09439    0.86907   11.22326   10.66894
      14      444        2     0.09439    6.07488   11.22339   10.66867
      15      444        2     0.09439    0.56643   13.44425   11.73047
      16      444        2     0.09439    5.77222   13.44431   11.73047
      17      444        2     0.09439   10.66021   15.57873   18.38210
      18      444        2     0.09439    5.45400   15.57887   18.38182
      19      444        2     0.09439    1.63508   16.72016   22.29899
      20      444        2     0.09439    6.84113   16.71986   22.29871
      21      444        2     0.09439    3.40604   18.12838   21.25904
      22      444        2     0.09439    8.61225   18.12789   21.25876
      23      444        2     0.09439    3.65104   18.17467   18.77384
      24      444        2     0.09439    8.85721   18.17426   18.77412
      25      444        2     0.09439    3.50765   12.52827   24.61017
      26      444        2     0.09439    8.71368   12.52822   24.61017
      27      444        2     0.09439    1.21584   12.31409   20.74916
      28      444        2     0.09439    6.42534   12.31435   20.97049
      29      444        2     0.09439    4.90255   10.64301   22.03229
      30      444        2     0.09439   10.10842   10.64284   22.03201
      31      444        2     0.09439    5.29460    9.92958   24.38829
      32      444        2     0.09439   10.50049    9.92958   24.38829
      33      444        2     0.09439    1.92117    3.29403   27.20409
      34      444        2     0.09439    7.12760    3.29374   27.20492
      35      444        2     0.09439    2.72264    0.31119    2.38477
      36      444        2     0.09439    7.92952    0.31196    2.38726
      37      444        2     0.09439    4.55281    1.83030    3.16383
      38      444        2     0.09439    9.75936    1.83171    3.16522
      39      444        2     0.09439    4.85764    4.05133    2.10258
      40      444        2     0.09439   10.06388    4.05240    2.10341
      41      444        2     0.09439    5.61373    6.18839   23.11899
      42      444        2     0.09439    0.36585    6.18827   23.11899
      43      444        2     0.09439    4.22491    7.33149   19.20321
      44      444        2     0.09439    9.43099    7.33134   19.20321
      45      444        2     0.09439    2.45418    8.73892   20.24288
      46      444        2     0.09439    7.66028    8.73879   20.24482
      47      444        2     0.09439    2.21051    8.78421   22.72974
      48      444        2     0.09439    7.41651    8.78409   22.72974
      49      444        2     0.09439    2.35308    3.13846   16.89037
      50      444        2     0.09439    7.55908    3.13864   16.89037
      51      444        2     0.09439    4.64065    2.92475   20.53060
      52      444        2     0.09439    9.84653    2.92502   20.53060
      53      444        2     0.09439    0.95751    1.25319   19.46963
      54      444        2     0.09439    6.16356    1.25310   19.46963
      55      444        2     0.09439    0.56562    0.53949   17.11114
      56      444        2     0.09439    5.77168    0.53949   17.11335
      57      444        2     0.09439    1.70291    6.09545   13.37076
      58      444        2     0.09439    6.90878    6.09540   13.37242
      59      444        2     0.09439    2.94239    9.07819   16.21948
      60      444        2     0.09439    8.14850    9.07808   16.21976
      61      444        2     0.09439    4.77189    7.55812   16.99771
      62      444        2     0.09439    9.97808    7.55801   16.99771
      63      444        2     0.09439    5.07617    5.33741   15.93591
      64      444        2     0.09439   10.28232    5.33734   15.93563
      65      444        2     0.09439    5.39470    3.20120    9.28511
      66      444        2     0.09439    0.14701    3.20124    9.28539
      67      444        2     0.09439    4.00694    2.05884    5.36878
      68      444        2     0.09439    9.21291    2.05891    5.36905
      69      444        2     0.09439    2.23617    0.65099    6.40983
      70      444        2     0.09439    7.44208    0.65111    6.40983
      71      444        2     0.09439    1.99171    0.60519    8.89447
      72      444        2     0.09439    7.19769    0.60523    8.89447
      73      444        2     0.09439    2.13559    6.25183    3.05815
      74      444        2     0.09439    7.34168    6.25174    3.05787
      75      444        2     0.09439    4.42277    6.46469    6.69866
      76      444        2     0.09439    9.62877    6.46459    6.69866
      77      444        2     0.09439    0.74008    8.13636    5.63796
      78      444        2     0.09439    5.94607    8.13627    5.63796
      79      444        2     0.09439    0.34841    8.85056    3.28196
      80      444        2     0.09439    5.55441    8.85035    3.28196
      81      444        2     0.09439    3.72222   15.48739    0.46063
      82      444        2     0.09439    8.92780   15.48764    0.45952
      83      444        2     0.09439    2.91822   18.46967   25.27967
      84      444        2     0.09439    8.12341   18.46879   25.27774
      85      444        2     0.09439    1.08850   16.94956   24.50227
      86      444        2     0.09439    6.29391   16.94813   24.50089
      87      444        2     0.09439    0.78511   14.72845   25.56352
      88      444        2     0.09439    5.99084   14.72738   25.56269
      89      444        2     0.09439   10.44130   12.59313    4.54849
      90      444        2     0.09439    5.23522   12.59328    4.54822
      91      444        2     0.09439    1.41699   11.45089    8.46483
      92      444        2     0.09439    6.62300   11.45123    8.46483
      93      444        2     0.09439    3.18794   10.04316    7.42405
      94      444        2     0.09439    8.39394   10.04350    7.42405
      95      444        2     0.09439    3.43244    9.99746    4.93941
      96      444        2     0.09439    8.63842    9.99770    4.93941
      97      444        2     0.09439    3.28997   15.64300   10.77739
      98      444        2     0.09439    8.49603   15.64300   10.77767
      99      444        2     0.09439    1.00121   15.85783    7.13799
     100      444        2     0.09439    6.20730   15.85759    7.13826
     101      444        2     0.09439    4.68485   17.52896    8.20007
     102      444        2     0.09439    9.89067   17.52918    8.20007
     103      444        2     0.09439    5.07717   18.24197   10.55634
     104      444        2     0.09439   10.28303   18.24210   10.55441
     105      444        3     0.79599    2.07396   14.55119   13.70607
     106      444        3     0.79599    7.27999   14.55130   13.70579
     107      444        3    -0.13116    2.23856   13.20314   13.07529
     108      444        3    -0.13116    7.44462   13.20329   13.07501
     109      444        3    -0.03880    3.26816   12.35806   13.50300
     110      444        3    -0.03880    8.47412   12.35812   13.50300
     111      444        3    -0.13116    3.43031   11.08866   12.92922
     112      444        3    -0.13116    8.63628   11.08880   12.92894
     113      444        3    -0.03880    2.56787   10.68838   11.88982
     114      444        3    -0.03880    7.77358   10.68840   11.88982
     115      444        3    -0.03880    1.55117   11.53819   11.45824
     116      444        3    -0.03880    6.75717   11.53843   11.45796
     117      444        3    -0.03880    1.37321   12.78794   12.05277
     118      444        3    -0.03880    6.57910   12.78807   12.05250
     119      444        3     0.33523    4.48895   10.18540   13.41170
     120      444        3     0.33523    9.69486   10.18550   13.41143
     121      444        3     0.79599    2.09273   16.95906   16.93353
     122      444        3     0.79599    7.29860   16.95909   16.93325
     123      444        3    -0.13116    1.96333   16.88568   18.42830
     124      444        3    -0.13116    7.16931   16.88556   18.42802
     125      444        3    -0.03880    0.94918   16.12080   19.01287
     126      444        3    -0.03880    6.15517   16.12063   19.01259
     127      444        3    -0.13116    0.84049   16.04021   20.41054
     128      444        3    -0.13116    6.04628   16.04021   20.41054
     129      444        3    -0.03880    1.72594   16.78030   21.19181
     130      444        3    -0.03880    6.93243   16.77993   21.21643
     131      444        3    -0.03880    2.71897   17.56171   20.62992
     132      444        3    -0.03880    7.92508   17.56134   20.62992
     133      444        3    -0.03880    2.85675   17.59679   19.24167
     134      444        3    -0.03880    8.06285   17.59649   19.24167
     135      444        3     0.33523    5.01659   15.19113   21.03052
     136      444        3     0.33523   10.22270   15.19111   21.03080
     137      444        3     0.33523    3.31838   13.56725   22.12663
     138      444        3     0.33523    8.52449   13.56719   22.12691
     139      444        3     0.79599    2.16070   10.64204   25.99842
     140      444        3     0.79599    7.36656   10.64208   25.99842
     141      444        3    -0.13116    1.83596   11.16434   24.63506
     142      444        3    -0.13116    7.04192   11.16434   24.63534
     143      444        3    -0.03880    2.66640   12.12660   24.04966
     144      444        3    -0.03880    7.87256   12.12641   24.04966
     145      444        3    -0.13116    2.43421   12.56132   22.73776
     146      444        3    -0.13116    7.64016   12.56145   22.73804
     147      444        3    -0.03880    1.37192   12.00039   22.00241
     148      444        3    -0.03880    6.57807   12.00037   22.00269
     149      444        3    -0.03880    0.52765   11.06463   22.59750
     150      444        3    -0.03880    5.73356   11.06485   22.59750
     151      444        3    -0.03880    0.74282   10.65862   23.91410
     152      444        3    -0.03880    5.94886   10.65862   23.91604
     153      444        3     0.79599    3.35160    5.16020    0.12726
     154      444        3     0.79599    8.55760    5.16042    0.12726
     155      444        3    -0.13116    3.18576    3.81189    0.75721
     156      444        3    -0.13116    8.39193    3.81236    0.75804
     157      444        3    -0.03880    2.15559    2.96768    0.32645
     158      444        3    -0.03880    7.36213    2.96773    0.32977
     159      444        3    -0.13116    1.99230    1.69831    0.90245
     160      444        3    -0.13116    7.19904    1.69854    0.90383
     161      444        3    -0.03880    2.85421    1.29707    1.94184
     162      444        3    -0.03880    8.06098    1.29769    1.94212
     163      444        3    -0.03880    3.87118    2.14611    2.37426
     164      444        3    -0.03880    9.07760    2.14720    2.37564
     165      444        3    -0.03880    4.05043    3.39578    1.78000
     166      444        3    -0.03880    9.25669    3.39668    1.78111
     167      444        3     0.33523    0.93303    0.79574    0.41996
     168      444        3     0.33523    6.14019    0.79561    0.42107
     169      444        3     0.79599    3.77163    7.56896   24.56950
     170      444        3     0.79599    8.97755    7.56879   24.56701
     171      444        3    -0.13116    3.89855    7.49530   23.07445
     172      444        3    -0.13116    9.10452    7.49515   23.07445
     173      444        3    -0.03880    4.91225    6.73057   22.48877
     174      444        3    -0.03880   10.11827    6.73044   22.48905
     175      444        3    -0.13116    5.02031    6.65057   21.08945
     176      444        3    -0.13116   10.22641    6.65052   21.09111
     177      444        3    -0.03880    4.13410    7.39099   20.28576
     178      444        3    -0.03880    9.34019    7.39088   20.28576
     179      444        3    -0.03880    3.14160    8.17190   20.87338
     180      444        3    -0.03880    8.34764    8.17174   20.87338
     181      444        3    -0.03880    3.00459    8.20647   22.26164
     182      444        3    -0.03880    8.21058    8.20634   22.26164
     183      444        3     0.33523    0.84398    5.80156   20.47029
     184      444        3     0.33523    6.04980    5.80163   20.47029
     185      444        3     0.33523    2.54198    4.17774   19.37391
     186      444        3     0.33523    7.74788    4.17797   19.37391
     187      444        3     0.79599    3.70057    1.25165   15.50350
     188      444        3     0.79599    8.90659    1.25178   15.50350
     189      444        3    -0.13116    4.02463    1.77441   16.86492
     190      444        3    -0.13116    9.23059    1.77455   16.86630
     191      444        3    -0.03880    3.19414    2.73691   17.45115
     192      444        3    -0.03880    8.40000    2.73699   17.45115
     193      444        3    -0.13116    3.42626    3.17189   18.76305
     194      444        3    -0.13116    8.63219    3.17216   18.76277
     195      444        3    -0.03880    4.48830    2.61089   19.49868
     196      444        3    -0.03880    9.69406    2.61098   19.49840
     197      444        3    -0.03880    5.33267    1.67494   18.90415
     198      444        3    -0.03880   10.53856    1.67513   18.90415
     199      444        3    -0.03880    5.11760    1.26866   17.58588
     200      444        3    -0.03880   10.32347    1.26872   17.58588
     201      444        3     0.79599    3.56969    4.22968   13.94344
     202      444        3     0.79599    8.77583    4.22961   13.96004
     203      444        3    -0.13116    3.40441    5.57772   14.59053
     204      444        3    -0.13116    8.61013    5.57759   14.57974
     205      444        3    -0.03880    2.37465    6.42240   14.16199
     206      444        3    -0.03880    7.58067    6.42240   14.16227
     207      444        3    -0.13116    2.21164    7.69163   14.73605
     208      444        3    -0.13116    7.41768    7.69163   14.73633
     209      444        3    -0.03880    3.07363    8.09236   15.77573
     210      444        3    -0.03880    8.27988    8.09238   15.77573
     211      444        3    -0.03880    4.09027    7.24285   16.20786
     212      444        3    -0.03880    9.29631    7.24270   16.20814
     213      444        3    -0.03880    4.26915    5.99329   15.61333
     214      444        3    -0.03880    9.47521    5.99320   15.61361
     215      444        3     0.33523    1.15275    8.59457   14.25357
     216      444        3     0.33523    6.35875    8.59457   14.25329
     217      444        3     0.79599    3.55195    1.82054   10.73506
     218      444        3     0.79599    8.75793    1.82054   10.73534
     219      444        3    -0.13116    3.67951    1.89426    9.24002
     220      444        3    -0.13116    8.88546    1.89432    9.24029
     221      444        3    -0.03880    4.69348    2.65895    8.65489
     222      444        3    -0.03880    9.89943    2.65903    8.65489
     223      444        3    -0.13116    4.80187    2.73924    7.25695
     224      444        3    -0.13116   10.00789    2.73924    7.25723
     225      444        3    -0.03880    3.91593    1.99898    6.45133
     226      444        3    -0.03880    9.12195    1.99898    6.45161
     227      444        3    -0.03880    2.92329    1.21796    7.03839
     228      444        3    -0.03880    8.12921    1.21807    7.03867
     229      444        3    -0.03880    2.78588    1.18311    8.42665
     230      444        3    -0.03880    7.99184    1.18316    8.42693
     231      444        3     0.33523    0.62563    3.58828    6.63697
     232      444        3     0.33523    5.83155    3.58821    6.63669
     233      444        3     0.33523    2.32407    5.21208    5.54141
     234      444        3     0.33523    7.53011    5.21197    5.54113
     235      444        3     0.79599    3.48302    8.13880    1.67211
     236      444        3     0.79599    8.68908    8.13880    1.67183
     237      444        3    -0.13116    3.80725    7.61569    3.03463
     238      444        3    -0.13116    9.01324    7.61571    3.03463
     239      444        3    -0.03880    2.97671    6.65305    3.61921
     240      444        3    -0.03880    8.18265    6.65311    3.61893
     241      444        3    -0.13116    3.20863    6.21792    4.93083
     242      444        3    -0.13116    8.41465    6.21781    4.93055
     243      444        3    -0.03880    4.27072    6.77859    5.66646
     244      444        3    -0.03880    9.47654    6.77870    5.66646
     245      444        3    -0.03880    5.11513    7.71471    5.07248
     246      444        3    -0.03880   10.32107    7.71469    5.07220
     247      444        3    -0.03880    4.89994    8.12116    3.73485
     248      444        3    -0.03880   10.10614    8.12131    3.75394
     249      444        3     0.79599    2.29239   13.62049   27.53856
     250      444        3     0.79599    7.49828   13.62024   27.53801
     251      444        3    -0.13116    2.45741   14.96872   26.90834
     252      444        3    -0.13116    7.66322   14.96825   26.90724
     253      444        3    -0.03880    3.48745   15.81331   27.33605
     254      444        3    -0.03880    8.69294   15.81326   27.33495
     255      444        3    -0.13116    3.64987   17.08279   26.76227
     256      444        3    -0.13116    8.85526   17.08255   26.76089
     257      444        3    -0.03880    2.78749   17.48364   25.72315
     258      444        3    -0.03880    7.99268   17.48294   25.72177
     259      444        3    -0.03880    1.77056   16.63418   25.29157
     260      444        3    -0.03880    6.97617   16.63302   25.28991
     261      444        3    -0.03880    1.59214   15.38440   25.88582
     262      444        3    -0.03880    6.79784   15.38350   25.88472
     263      444        3     0.33523    4.70896   17.98564   27.24476
     264      444        3     0.33523    9.91386   17.98579   27.24227
     265      444        3     0.79599    1.87286   11.21297    3.09909
     266      444        3     0.79599    7.07884   11.21319    3.09909
     267      444        3    -0.13116    1.74448   11.28631    4.59386
     268      444        3    -0.13116    6.95050   11.28656    4.59386
     269      444        3    -0.03880    0.73057   12.05121    5.17899
     270      444        3    -0.03880    5.93642   12.05126    5.17899
     271      444        3    -0.13116    0.62195   12.13132    6.57693
     272      444        3    -0.13116    5.82791   12.13154    6.57665
     273      444        3    -0.03880    1.50817   11.39124    7.38227
     274      444        3    -0.03880    6.71402   11.39139    7.38227
     275      444        3    -0.03880    2.50066   10.60991    6.79521
     276      444        3    -0.03880    7.70670   10.61030    6.79466
     277      444        3    -0.03880    2.63817   10.57518    5.40585
     278      444        3    -0.03880    7.84418   10.57544    5.40723
     279      444        3     0.33523    4.79825   12.98047    7.19719
     280      444        3     0.33523   10.00426   12.98037    7.19719
     281      444        3     0.33523    3.10033   14.60435    8.29385
     282      444        3     0.33523    8.30644   14.60428    8.29385
     283      444        3     0.79599    1.94316   17.52908   12.16620
     284      444        3     0.79599    7.14905   17.52902   12.16454
     285      444        3    -0.13116    1.61842   17.00710   10.80284
     286      444        3    -0.13116    6.82440   17.00703   10.80312
     287      444        3    -0.03880    2.44873   16.04486   10.21716
     288      444        3    -0.03880    7.65484   16.04490   10.21716
     289      444        3    -0.13116    2.21628   15.61026    8.90526
     290      444        3    -0.13116    7.42241   15.61015    8.90554
     291      444        3    -0.03880    1.15400   16.17145    8.17019
     292      444        3    -0.03880    6.36017   16.17134    8.17019
     293      444        3    -0.03880    0.30993   17.10725    8.76528
     294      444        3    -0.03880    5.51589   17.10698    8.76445
     295      444        3    -0.03880    0.52532   17.51306   10.08382
     296      444        3    -0.03880    5.73131   17.51293   10.08382
     297      444        4    -0.18241    4.68409    9.02190   12.74330
     298      444        4    -0.18241    9.88927    9.02152   12.74358
     299      444        4    -0.18241    5.21026   10.56968   14.49398
     300      444        4    -0.18241   10.41621   10.56975   14.49370
     301      444        4    -0.18241    4.18427   14.49660   20.21411
     302      444        4    -0.18241    9.39065   14.49624   20.21411
     303      444        4    -0.18241    3.31412   13.67291   20.77406
     304      444        4    -0.18241    8.52022   13.67291   20.77461
     305      444        4    -0.18241    4.04889   14.36251   22.94498
     306      444        4    -0.18241    9.25517   14.36230   22.94525
     307      444        4    -0.18241    4.91327   15.19592   22.38226
     308      444        4    -0.18241   10.11949   15.19575   22.38254
     309      444        4    -0.18241    0.73991   18.41378    1.08809
     310      444        4    -0.18241    5.94755   18.41323    1.08726
     311      444        4    -0.18241    0.64825    1.17950   27.00351
     312      444        4    -0.18241    5.85616    1.17873   27.00407
     313      444        4    -0.18241    1.67668    5.10723   21.28670
     314      444        4    -0.18241    6.88248    5.10731   21.28670
     315      444        4    -0.18241    2.54696    4.28394   20.72620
     316      444        4    -0.18241    7.75262    4.28387   20.72592
     317      444        4    -0.18241    1.81087    4.97259   18.55584
     318      444        4    -0.18241    7.01659    4.97263   18.55556
     319      444        4    -0.18241    0.94673    5.80617   19.11689
     320      444        4    -0.18241    6.15240    5.80615   19.11855
     321      444        4    -0.18241    0.95801    9.75839   14.92003
     322      444        4    -0.18241    6.16464    9.75879   14.92114
     323      444        4    -0.18241    0.43100    8.21003   13.17157
     324      444        4    -0.18241    5.63706    8.21001   13.17184
     325      444        4    -0.18241    1.45829    4.28221    7.45365
     326      444        4    -0.18241    6.66435    4.28199    7.45338
     327      444        4    -0.18241    2.32878    5.10558    6.89342
     328      444        4    -0.18241    7.53417    5.10609    6.89149
     329      444        4    -0.18241    1.59333    4.41728    4.72279
     330      444        4    -0.18241    6.79963    4.41694    4.72251
     331      444        4    -0.18241    0.72887    3.58379    5.28523
     332      444        4    -0.18241    5.93440    3.58418    5.28495
     333      444        4    -0.18241    4.90185    0.36779   26.57663
     334      444        4    -0.18241   10.10609    0.36832   26.57608
     335      444        4    -0.18241    4.99429   17.60164    0.66065
     336      444        4    -0.18241   10.19818   17.60241    0.66038
     337      444        4    -0.18241    3.96562   13.67500    6.37968
     338      444        4    -0.18241    9.17206   13.67532    6.38106
     339      444        4    -0.18241    3.09558   14.49857    6.94156
     340      444        4    -0.18241    8.30184   14.49872    6.94184
     341      444        4    -0.18241    3.83072   13.80870    9.11193
     342      444        4    -0.18241    9.03728   13.80906    9.11193
     343      444        4    -0.18241    4.69515   12.97549    8.54893
     344      444        4    -0.18241    9.90142   12.97557    8.54893
     345      444        5    -0.71838    3.06602   15.02859   14.35233
     346      444        5    -0.71838    8.27197   15.02861   14.35233
     347      444        5    -0.71838    0.95979   15.15429   13.54920
     348      444        5    -0.71838    6.16569   15.15427   13.54782
     349      444        5    -0.71838    3.22360   17.27717   16.44883
     350      444        5    -0.71838    8.42944   17.27720   16.44855
     351      444        5    -0.71838    1.05043   16.72177   16.24189
     352      444        5    -0.71838    6.25629   16.72172   16.24161
     353      444        5    -0.71838    3.33027   10.79825   26.43720
     354      444        5    -0.71838    8.53616   10.79816   26.43747
     355      444        5    -0.83325    1.22796   10.02668   26.66350
     356      444        5    -0.83325    6.43389   10.02645   26.66350
     357      444        5    -0.71838    2.79727    5.63748   27.14599
     358      444        5    -0.71838    8.00328    5.63738   27.14599
     359      444        5    -0.71838    4.46607    5.76259    0.28440
     360      444        5    -0.71838    9.67212    5.76281    0.28440
     361      444        5    -0.71838    2.64237    7.88876   25.05696
     362      444        5    -0.71838    7.84824    7.88828   25.05669
     363      444        5    -0.71838    4.81524    7.33057   25.25892
     364      444        5    -0.71838   10.02125    7.33061   25.25892
     365      444        5    -0.71838    2.53122    1.40787   15.06389
     366      444        5    -0.71838    7.73725    1.40787   15.06361
     367      444        5    -0.83325    4.63401    0.63583   14.84008
     368      444        5    -0.83325    9.84000    0.63577   14.84008
     369      444        5    -0.71838    2.57839    3.75176   13.31266
     370      444        5    -0.71838    7.78435    3.75176   13.31294
     371      444        5    -0.71838    4.68445    3.62721   14.11662
     372      444        5    -0.71838    9.89041    3.62723   14.11662
     373      444        5    -0.71838    2.42239    1.50091   11.22198
     374      444        5    -0.71838    7.62842    1.50080   11.22225
     375      444        5    -0.71838    4.59527    2.05871   11.42504
     376      444        5    -0.71838    9.80125    2.05873   11.42504