Created on Tue Feb 06 15:00:06 2018 

        2176 atoms
        2560 bonds
        4608 angles
        5120 dihedrals
        3840 impropers

           4 atom types
           4 bond types
           7 angle types
           1 dihedral types
           1 improper types
           0.000000  33.002000 xlo xhi
           0.000000  39.083991 ylo yhi
           0.000000  39.080000 zlo zhi
          -0.026604   0.004092   0.000003 xy xz yz

Masses

    1    65.380000000 # Zn3+2
    2     1.007940000 # H_
    3    12.010700000 # C_R
    4    14.006700000 # N_R

Bond Coeffs

    1      165.837318        1.881712  # Zn3+2 N_R
    2      357.440381        1.081418  # H_ C_R
    3      462.655054        1.379256  # C_R C_R
    4      663.718927        1.345073  # C_R N_R

Angle Coeffs

    1                      fourier       55.784590        0.343737        0.374972        0.281246 # N_R Zn3+2 N_R
    2              cosine/periodic      165.695700              -1               3 # C_R C_R N_R
    3              cosine/periodic       76.817955              -1               3 # H_ C_R C_R
    4              cosine/periodic      109.704024              -1               3 # H_ C_R N_R
    5              cosine/periodic      234.844275              -1               3 # N_R C_R N_R
    6              cosine/periodic      132.654363              -1               3 # C_R N_R C_R
    7              cosine/periodic       36.261492              -1               3 # Zn3+2 N_R C_R

Dihedral Coeffs

    1        1.497136              -1               2 # N_R C_R C_R H_

Improper Coeffs

    1        2.000000        1.000000       -1.000000        0.000000               0 # N_R C_R H_ C_R

Pair Coeffs

    1        0.124000        2.461553 # Zn3+2 Zn3+2
    2        0.044000        2.571134 # H_ H_
    3        0.105000        3.430851 # C_R C_R
    4        0.069000        3.260689 # N_R N_R

Atoms

       1      444        1     0.73209   13.45583   17.26029    6.51815
       2      444        1     0.73209   13.46680    2.28235   13.02224
       3      444        1     0.73209    5.21521    3.25269    7.48812
       4      444        1     0.73209    5.20642   16.29027   12.05208
       5      444        1     0.73209   11.27793   12.05264   16.28854
       6      444        1     0.73209   11.27965    7.48867    3.25204
       7      444        1     0.73209    3.03111    6.51839   17.25851
       8      444        1     0.73209    3.02535   13.02265    2.28188
       9      444        1     0.73209    3.03375    2.28169   13.02204
      10      444        1     0.73209    3.02278   17.25963    6.51796
      11      444        1     0.73209   11.27435   16.28929   12.05208
      12      444        1     0.73209   11.28316    3.25169    7.48773
      13      444        1     0.73209    5.21165    7.48933    3.25146
      14      444        1     0.73209    5.20991   12.05331   16.28815
      15      444        1     0.73209   13.45845   13.02361    2.28188
      16      444        1     0.73209   13.46423    6.51933   17.25831
      17      444        2     0.08466   15.09837   14.94134    7.97525
      18      444        2     0.08466   11.18480   17.32832    4.17726
      19      444        2     0.08466   14.54617    0.23605    4.76209
      20      444        2     0.08466   11.15042   15.06457    6.98106
      21      444        2     0.08466   11.67633    0.03039    7.83945
      22      444        2     0.08466   15.11026    4.60120   11.56494
      23      444        2     0.08466   11.19436    2.21313   15.36118
      24      444        2     0.08466   14.53262   19.30880   14.77947
      25      444        2     0.08466   11.16131    4.47750   12.55914
      26      444        2     0.08466   11.66414   19.50979   11.69957
      27      444        2     0.08466    6.85794    1.79573    5.16872
      28      444        2     0.08466    2.94276    5.59161    7.55827
      29      444        2     0.08466    6.29381    5.00932   10.00448
      30      444        2     0.08466    2.90968    2.78858    5.29280
      31      444        2     0.08466    3.42519    1.92954    9.80146
      32      444        2     0.08466    6.84965   17.74826   14.37069
      33      444        2     0.08466    2.93547   13.94933   11.98408
      34      444        2     0.08466    6.28380   14.53332    9.53552
      35      444        2     0.08466    2.90057   16.75212   14.24681
      36      444        2     0.08466    3.41492   17.61275    9.73893
      37      444        2     0.08466    9.63526   14.37161   17.74545
      38      444        2     0.08466   13.54854   11.98470   13.94726
      39      444        2     0.08466   10.20103    9.53505   14.53248
      40      444        2     0.08466   13.58314   14.24846   16.75106
      41      444        2     0.08466   13.07112    9.74067   17.61062
      42      444        2     0.08466    9.63626    5.16972    1.79494
      43      444        2     0.08466   13.55199    7.55849    5.59118
      44      444        2     0.08466   10.20010   10.00413    5.00927
      45      444        2     0.08466   13.58483    5.29320    2.78875
      46      444        2     0.08466   13.06884    9.80311    1.92957
      47      444        2     0.08466    1.38851    7.97523   14.93911
      48      444        2     0.08466    5.30335    4.17919   17.32827
      49      444        2     0.08466    1.95077    4.76205    0.23468
      50      444        2     0.08466    5.33647    6.98251   15.06280
      51      444        2     0.08466    4.81976    7.84142    0.03087
      52      444        2     0.08466    1.38196   11.56501    4.60069
      53      444        2     0.08466    5.29648   15.36335    2.21369
      54      444        2     0.08466    1.94967   14.77989   19.30611
      55      444        2     0.08466    5.33103   12.56070    4.47681
      56      444        2     0.08466    4.81818   11.70007   19.50874
      57      444        2     0.08466    1.39118    4.60054   11.56377
      58      444        2     0.08466    5.30474    2.21364   15.36293
      59      444        2     0.08466    1.94318   19.30589   14.77791
      60      444        2     0.08466    5.33895    4.47760   12.55914
      61      444        2     0.08466    4.81335   19.51161   11.69977
      62      444        2     0.08466    1.37931   14.94068    7.97506
      63      444        2     0.08466    5.29497   17.32908    4.17882
      64      444        2     0.08466    1.95688    0.23318    4.76073
      65      444        2     0.08466    5.32817   15.06440    6.98106
      66      444        2     0.08466    4.82546    0.03219    7.84062
      67      444        2     0.08466    9.63162   17.74648   14.37128
      68      444        2     0.08466   13.54660   13.95019   11.98193
      69      444        2     0.08466   10.19556   14.53286    9.53572
      70      444        2     0.08466   13.57983   16.75341   14.24759
      71      444        2     0.08466   13.06449   17.61234    9.73893
      72      444        2     0.08466    9.63990    1.79396    5.16950
      73      444        2     0.08466   13.55401    5.59274    7.55631
      74      444        2     0.08466   10.20569    5.00856   10.00468
      75      444        2     0.08466   13.58878    2.78982    5.29319
      76      444        2     0.08466   13.07468    1.92923    9.80126
      77      444        2     0.08466    6.85430    5.17052    1.79377
      78      444        2     0.08466    2.94084    7.55712    5.59235
      79      444        2     0.08466    6.28848   10.00693    5.00791
      80      444        2     0.08466    2.90628    5.29367    2.78914
      81      444        2     0.08466    3.41848    9.80133    1.92957
      82      444        2     0.08466    6.85329   14.37244   17.74486
      83      444        2     0.08466    2.93748   11.98358   13.94922
      84      444        2     0.08466    6.28924    9.53792   14.53073
      85      444        2     0.08466    2.90461   14.24864   16.75145
      86      444        2     0.08466    3.42087    9.73885   17.61082
      87      444        2     0.08466   15.10104   11.56665    4.60108
      88      444        2     0.08466   11.18620   15.36276    2.21193
      89      444        2     0.08466   14.53865   14.78010   19.30552
      90      444        2     0.08466   11.15285   12.55952    4.47720
      91      444        2     0.08466   11.66989   11.70052   19.50932
      92      444        2     0.08466   15.10760    7.97687   14.93950
      93      444        2     0.08466   11.19285    4.17886   17.32631
      94      444        2     0.08466   14.53976    4.76197    0.23409
      95      444        2     0.08466   11.15848    6.98128   15.06358
      96      444        2     0.08466   11.67147    7.84199    0.03146
      97      444        2     0.08466   -0.01080   18.42709    6.06268
      98      444        2     0.08466   16.50033    1.11497   13.47771
      99      444        2     0.08466    8.24933    3.70790    8.65485
     100      444        2     0.08466    8.24024   15.83396   10.88534
     101      444        2     0.08466    8.24356   10.88581   15.83287
     102      444        2     0.08466    8.24600    8.65607    3.70752
     103      444        2     0.08466   16.49788    6.06324   18.42524
     104      444        2     0.08466   -0.00835   13.47878    1.11515
     105      444        2     0.08466   14.47035   14.75849    4.78437
     106      444        2     0.08466   14.47922    4.78468   14.75719
     107      444        2     0.08466    6.22668    4.98776    4.98544
     108      444        2     0.08466    6.22175   14.55590   14.55144
     109      444        2     0.08466   10.26295   14.55431   14.55476
     110      444        2     0.08466   10.26785    4.98602    4.98661
     111      444        2     0.08466    2.01922    4.78349   14.75465
     112      444        2     0.08466    2.01044   14.75716    4.78320
     113      444        3    -0.03834   15.80166   15.65800    7.56491
     114      444        3    -0.03834   11.86252   16.49696    4.01684
     115      444        3    -0.03834   13.81606    0.57248    5.48996
     116      444        3    -0.03834   11.40082   15.51832    7.93363
     117      444        3     0.23102   12.33697    0.43841    7.08227
     118      444        3    -0.03834   15.81320    3.88425   11.97528
     119      444        3    -0.03834   11.87151    3.04484   15.52238
     120      444        3    -0.03834   13.80354   18.97116   14.05102
     121      444        3    -0.03834   11.41146    4.02354   11.60656
     122      444        3     0.23102   12.32509   19.10285   12.45812
     123      444        3    -0.03834    7.56116    2.20572    5.88564
     124      444        3    -0.03834    3.61965    5.75285    6.72625
     125      444        3    -0.03834    5.56434    4.28101   10.34154
     126      444        3    -0.03834    3.16073    1.83611    5.74652
     127      444        3     0.23102    4.08584    2.68808   10.20887
     128      444        3    -0.03834    7.55266   17.33729   13.65416
     129      444        3    -0.03834    3.61343   13.78862   12.81511
     130      444        3    -0.03834    5.55418   15.26152    9.19845
     131      444        3    -0.03834    3.15034   17.70497   13.79309
     132      444        3     0.23102    4.07560   16.85423    9.33133
     133      444        3    -0.03834    8.93202   13.65495   17.33511
     134      444        3    -0.03834   12.87074   12.81601   13.78684
     135      444        3    -0.03834   10.93119    9.19861   15.26035
     136      444        3    -0.03834   13.33299   13.79468   17.70383
     137      444        3     0.23102   12.41042    9.33265   16.85247
     138      444        3    -0.03834    8.93328    5.88671    2.20528
     139      444        3    -0.03834   12.87507    6.72659    5.75238
     140      444        3    -0.03834   10.92923   10.34178    4.28082
     141      444        3    -0.03834   13.33458    5.74722    1.83617
     142      444        3     0.23102   12.40779   10.21005    2.68792
     143      444        3    -0.03834    0.68526    7.56525   15.65603
     144      444        3    -0.03834    4.62633    4.01803   16.49645
     145      444        3    -0.03834    2.68041    5.49027    0.57174
     146      444        3    -0.03834    5.08546    7.93497   15.51652
     147      444        3     0.23102    4.15910    7.08296    0.43848
     148      444        3    -0.03834    0.67901   11.97586    3.88397
     149      444        3    -0.03834    4.61865   15.52412    3.04492
     150      444        3    -0.03834    2.67910   14.05160   18.96904
     151      444        3    -0.03834    5.08131   11.60787    4.02309
     152      444        3     0.23102    4.15751   12.45867   19.10152
     153      444        3    -0.03834    0.68791    3.88389   11.97528
     154      444        3    -0.03834    4.62703    3.04500   15.52355
     155      444        3    -0.03834    2.67335   18.96947   14.05004
     156      444        3    -0.03834    5.08862    4.02380   11.60656
     157      444        3     0.23102    4.15263   19.10357   12.45792
     158      444        3    -0.03834    0.67636   15.65767    7.56472
     159      444        3    -0.03834    4.61790   16.49727    4.01762
     160      444        3    -0.03834    2.68599    0.57084    5.48918
     161      444        3    -0.03834    5.07805   15.51836    7.93363
     162      444        3     0.23102    4.16449    0.43911    7.08208
     163      444        3    -0.03834    8.92840   17.33643   13.65436
     164      444        3    -0.03834   12.86978   13.78901   12.81375
     165      444        3    -0.03834   10.92510   15.26111    9.19865
     166      444        3    -0.03834   13.32880   17.70587   13.79387
     167      444        3     0.23102   12.40375   16.85386    9.33133
     168      444        3    -0.03834    8.93690    2.20487    5.88603
     169      444        3    -0.03834   12.87607    5.75342    6.72508
     170      444        3    -0.03834   10.93533    4.28038   10.34174
     171      444        3    -0.03834   13.33907    1.83697    5.74691
     172      444        3     0.23102   12.41398    2.68773   10.20887
     173      444        3    -0.03834    7.55754    5.88714    2.20489
     174      444        3    -0.03834    3.61870    6.72587    5.75336
     175      444        3    -0.03834    5.55834   10.34336    4.27985
     176      444        3    -0.03834    3.15647    5.74742    1.83481
     177      444        3     0.23102    4.07916   10.20932    2.68773
     178      444        3    -0.03834    7.55628   13.65536   17.33472
     179      444        3    -0.03834    3.61443   12.81547   13.78801
     180      444        3    -0.03834    5.56017    9.20024   15.25918
     181      444        3    -0.03834    3.15490   13.79466   17.70402
     182      444        3     0.23102    4.08180    9.33193   16.85227
     183      444        3    -0.03834   15.80430   11.97664    3.88416
     184      444        3    -0.03834   11.86321   15.52393    3.04375
     185      444        3    -0.03834   13.80904   14.05185   18.96865
     186      444        3    -0.03834   11.40395   11.60705    4.02348
     187      444        3     0.23102   12.33048   12.45904   19.10172
     188      444        3    -0.03834   15.81055    7.56604   15.65623
     189      444        3    -0.03834   11.87077    4.01799   16.49528
     190      444        3    -0.03834   13.81038    5.49030    0.57057
     191      444        3    -0.03834   11.40822    7.93411   15.51730
     192      444        3     0.23102   12.33208    7.08333    0.43867
     193      444        3     0.23102   -0.01107   17.46750    6.56857
     194      444        3     0.23102   16.50060    2.07450   12.97182
     195      444        3     0.23102    8.24924    3.20188    7.69544
     196      444        3     0.23102    8.24032   16.34008   11.84495
     197      444        3     0.23102    8.24377   11.84544   16.33876
     198      444        3     0.23102    8.24579    7.69652    3.20163
     199      444        3     0.23102   16.49804    6.56918   17.46563
     200      444        3     0.23102   -0.00851   12.97280    2.07456
     201      444        3     0.23102   13.57019   15.18696    4.35508
     202      444        3     0.23102   13.57887    4.35578   15.18551
     203      444        3     0.23102    5.32654    5.41612    5.41473
     204      444        3     0.23102    5.32147   14.12677   14.12488
     205      444        3     0.23102   11.16304   14.12589   14.12547
     206      444        3     0.23102   11.16809    5.41519    5.41551
     207      444        3     0.23102    2.91935    4.35501   15.18512
     208      444        3     0.23102    2.91073   15.18616    4.35468
     209      444        4    -0.38719   15.36904   16.81098    6.93084
     210      444        4    -0.38719   12.94893   16.27862    4.84592
     211      444        4    -0.38719   13.16485   19.22841    6.34210
     212      444        4    -0.38719   12.34016   16.53106    8.02312
     213      444        4    -0.38719   15.37999    2.73160   12.60955
     214      444        4    -0.38719   12.95862    3.26373   14.69310
     215      444        4    -0.38719   13.17822    0.31420   13.19868
     216      444        4    -0.38719   12.35080    3.01084   11.51707
     217      444        4    -0.38719    7.12837    2.84016    7.03831
     218      444        4    -0.38719    4.70660    4.92341    6.50702
     219      444        4    -0.38719    4.92615    3.42864    9.45619
     220      444        4    -0.38719    4.09997    1.74731    6.75928
     221      444        4    -0.38719    7.11961   16.70325   12.50130
     222      444        4    -0.38719    4.69988   14.61904   13.03338
     223      444        4    -0.38719    4.91621   16.11396   10.08401
     224      444        4    -0.38719    4.09007   17.79527   12.78092
     225      444        4    -0.38719    9.36469   12.50191   16.70123
     226      444        4    -0.38719   11.78449   13.03428   14.61748
     227      444        4    -0.38719   11.56900   10.08457   16.11249
     228      444        4    -0.38719   12.39373   12.78189   17.79351
     229      444        4    -0.38719    9.36644    7.03936    2.83916
     230      444        4    -0.38719   11.78803    6.50741    4.92291
     231      444        4    -0.38719   11.56810    9.45684    3.42732
     232      444        4    -0.38719   12.39547    6.76016    1.74688
     233      444        4    -0.38719    1.11796    6.93092   16.80870
     234      444        4    -0.38719    3.53949    4.84763   16.27721
     235      444        4    -0.38719    3.32054    6.34257   19.22658
     236      444        4    -0.38719    4.14629    8.02375   16.52947
     237      444        4    -0.38719    1.11215   12.60975    2.73130
     238      444        4    -0.38719    3.53211   14.69384    3.26318
     239      444        4    -0.38719    3.31516   13.19898    0.31381
     240      444        4    -0.38719    4.14165   11.51762    3.01072
     241      444        4    -0.38719    1.12052    2.73099   12.60936
     242      444        4    -0.38719    3.54061    3.26334   14.69310
     243      444        4    -0.38719    3.32468    0.31357   13.19810
     244      444        4    -0.38719    4.14939    3.01095   11.51707
     245      444        4    -0.38719    1.10957   16.81038    6.91716
     246      444        4    -0.38719    3.53090   16.27829    4.84592
     247      444        4    -0.38719    3.31134   19.22778    6.34151
     248      444        4    -0.38719    4.13875   16.53110    8.02312
     249      444        4    -0.38719    9.36119   16.70186   12.50189
     250      444        4    -0.38719   11.78291   14.61855   13.03318
     251      444        4    -0.38719   11.56339   16.11335   10.08401
     252      444        4    -0.38719   12.38960   17.79467   12.78092
     253      444        4    -0.38719    9.36995    2.83877    7.03889
     254      444        4    -0.38719   11.78967    4.92296    6.50682
     255      444        4    -0.38719   11.57333    3.42798    9.45541
     256      444        4    -0.38719   12.39946    1.74670    6.75928
     257      444        4    -0.38719    7.12488    7.04008    2.83897
     258      444        4    -0.38719    4.70504    6.50768    4.92271
     259      444        4    -0.38719    4.92054    9.45741    3.42790
     260      444        4    -0.38719    4.09582    6.76012    1.74668
     261      444        4    -0.38719    7.12312   12.50264   16.68716
     262      444        4    -0.38719    4.70150   13.03459   14.61729
     263      444        4    -0.38719    4.92143   10.08516   16.11073
     264      444        4    -0.38719    4.09409   12.78180   17.79332
     265      444        4    -0.38719   15.37161   12.61102    2.73150
     266      444        4    -0.38719   12.95008   14.69433    3.26298
     267      444        4    -0.38719   13.16901   13.19946    0.31362
     268      444        4    -0.38719   12.34324   11.51823    3.01072
     269      444        4    -0.38719   15.37741    6.93219   16.80831
     270      444        4    -0.38719   12.95740    4.84816   16.27702
     271      444        4    -0.38719   13.17439    6.34298   19.22638
     272      444        4    -0.38719   12.34791    8.02437   16.52889
     273      444        1     0.73209   13.45788   17.26029   26.05815
     274      444        1     0.73209   13.46885    2.28235   32.56224
     275      444        1     0.73209    5.21726    3.25269   27.02812
     276      444        1     0.73209    5.20847   16.29027   31.59208
     277      444        1     0.73209   11.27997   12.05265   35.82854
     278      444        1     0.73209   11.28170    7.48867   22.79204
     279      444        1     0.73209    3.03316    6.51839   36.79851
     280      444        1     0.73209    3.02739   13.02265   21.82188
     281      444        1     0.73209    3.03580    2.28169   32.56204
     282      444        1     0.73209    3.02482   17.25963   26.05796
     283      444        1     0.73209   11.27640   16.28929   31.59208
     284      444        1     0.73209   11.28521    3.25169   27.02773
     285      444        1     0.73209    5.21370    7.48933   22.79146
     286      444        1     0.73209    5.21196   12.05331   35.82815
     287      444        1     0.73209   13.46050   13.02361   21.82188
     288      444        1     0.73209   13.46628    6.51933   36.79831
     289      444        2     0.08466   15.10042   14.94134   27.51525
     290      444        2     0.08466   11.18685   17.32832   23.71726
     291      444        2     0.08466   14.54821    0.23605   24.30209
     292      444        2     0.08466   11.15246   15.06457   26.52106
     293      444        2     0.08466   11.67838    0.03039   27.37945
     294      444        2     0.08466   15.11230    4.60120   31.10494
     295      444        2     0.08466   11.19641    2.21313   34.90118
     296      444        2     0.08466   14.53466   19.30880   34.31947
     297      444        2     0.08466   11.16336    4.47750   32.09914
     298      444        2     0.08466   11.66618   19.50979   31.23957
     299      444        2     0.08466    6.85999    1.79574   24.70872
     300      444        2     0.08466    2.94481    5.59161   27.09827
     301      444        2     0.08466    6.29586    5.00932   29.54448
     302      444        2     0.08466    2.91173    2.78859   24.83280
     303      444        2     0.08466    3.42723    1.92954   29.34146
     304      444        2     0.08466    6.85170   17.74826   33.91069
     305      444        2     0.08466    2.93752   13.94933   31.52408
     306      444        2     0.08466    6.28584   14.53333   29.07552
     307      444        2     0.08466    2.90261   16.75212   33.78681
     308      444        2     0.08466    3.41697   17.61275   29.27893
     309      444        2     0.08466    9.63731   14.37162   37.28545
     310      444        2     0.08466   13.55059   11.98470   33.48726
     311      444        2     0.08466   10.20308    9.53505   34.07248
     312      444        2     0.08466   13.58518   14.24846   36.29106
     313      444        2     0.08466   13.07316    9.74067   37.15062
     314      444        2     0.08466    9.63830    5.16972   21.33494
     315      444        2     0.08466   13.55403    7.55849   25.13118
     316      444        2     0.08466   10.20214   10.00414   24.54927
     317      444        2     0.08466   13.58688    5.29321   22.32875
     318      444        2     0.08466   13.07089    9.80311   21.46957
     319      444        2     0.08466    1.39055    7.97523   34.47911
     320      444        2     0.08466    5.30539    4.17920   36.86827
     321      444        2     0.08466    1.95281    4.76205   19.77468
     322      444        2     0.08466    5.33851    6.98251   34.60280
     323      444        2     0.08466    4.82180    7.84142   19.57087
     324      444        2     0.08466    1.38401   11.56501   24.14069
     325      444        2     0.08466    5.29853   15.36335   21.75369
     326      444        2     0.08466    1.95172   14.77989   38.84611
     327      444        2     0.08466    5.33308   12.56070   24.01681
     328      444        2     0.08466    4.82023   11.70007   39.04874
     329      444        2     0.08466    1.39322    4.60054   31.10377
     330      444        2     0.08466    5.30679    2.21364   34.90293
     331      444        2     0.08466    1.94523   19.30589   34.31791
     332      444        2     0.08466    5.34099    4.47760   32.09914
     333      444        2     0.08466    4.81539   19.51161   31.23977
     334      444        2     0.08466    1.38135   14.94068   27.51506
     335      444        2     0.08466    5.29701   17.32908   23.71882
     336      444        2     0.08466    1.95893    0.23318   24.30073
     337      444        2     0.08466    5.33022   15.06440   26.52106
     338      444        2     0.08466    4.82751    0.03219   27.38062
     339      444        2     0.08466    9.63367   17.74648   33.91128
     340      444        2     0.08466   13.54865   13.95019   31.52193
     341      444        2     0.08466   10.19760   14.53286   29.07572
     342      444        2     0.08466   13.58188   16.75341   33.78759
     343      444        2     0.08466   13.06654   17.61234   29.27893
     344      444        2     0.08466    9.64194    1.79396   24.70950
     345      444        2     0.08466   13.55605    5.59275   27.09631
     346      444        2     0.08466   10.20773    5.00856   29.54468
     347      444        2     0.08466   13.59083    2.78982   24.83319
     348      444        2     0.08466   13.07672    1.92923   29.34126
     349      444        2     0.08466    6.85635    5.17052   21.33377
     350      444        2     0.08466    2.94288    7.55713   25.13235
     351      444        2     0.08466    6.29053   10.00693   24.54791
     352      444        2     0.08466    2.90832    5.29367   22.32914
     353      444        2     0.08466    3.42052    9.80133   21.46957
     354      444        2     0.08466    6.85534   14.37244   37.28486
     355      444        2     0.08466    2.93952   11.98358   33.48922
     356      444        2     0.08466    6.29128    9.53792   34.07073
     357      444        2     0.08466    2.90666   14.24864   36.29145
     358      444        2     0.08466    3.42292    9.73885   37.15082
     359      444        2     0.08466   15.10309   11.56665   24.14108
     360      444        2     0.08466   11.18824   15.36277   21.75193
     361      444        2     0.08466   14.54069   14.78010   38.84552
     362      444        2     0.08466   11.15490   12.55952   24.01720
     363      444        2     0.08466   11.67194   11.70052   39.04932
     364      444        2     0.08466   15.10965    7.97687   34.47950
     365      444        2     0.08466   11.19490    4.17886   36.86631
     366      444        2     0.08466   14.54180    4.76198   19.77409
     367      444        2     0.08466   11.16053    6.98128   34.60358
     368      444        2     0.08466   11.67351    7.84199   19.57146
     369      444        2     0.08466   -0.00876   18.42709   25.60268
     370      444        2     0.08466   16.50238    1.11497   33.01771
     371      444        2     0.08466    8.25137    3.70790   28.19485
     372      444        2     0.08466    8.24228   15.83396   30.42534
     373      444        2     0.08466    8.24561   10.88581   35.37287
     374      444        2     0.08466    8.24805    8.65607   23.24752
     375      444        2     0.08466   16.49992    6.06324   37.96524
     376      444        2     0.08466   -0.00630   13.47878   20.65515
     377      444        2     0.08466   14.47239   14.75849   24.32437
     378      444        2     0.08466   14.48127    4.78468   34.29719
     379      444        2     0.08466    6.22873    4.98776   24.52544
     380      444        2     0.08466    6.22380   14.55590   34.09144
     381      444        2     0.08466   10.26499   14.55431   34.09476
     382      444        2     0.08466   10.26989    4.98602   24.52661
     383      444        2     0.08466    2.02126    4.78349   34.29465
     384      444        2     0.08466    2.01249   14.75716   24.32320
     385      444        3    -0.03834   15.80370   15.65801   27.10491
     386      444        3    -0.03834   11.86457   16.49696   23.55684
     387      444        3    -0.03834   13.81811    0.57248   25.02996
     388      444        3    -0.03834   11.40287   15.51832   27.47363
     389      444        3     0.23102   12.33902    0.43841   26.62227
     390      444        3    -0.03834   15.81525    3.88425   31.51528