Created on Tue Feb 06 15:43:18 2018 

        2432 atoms
        2944 bonds
        5120 angles
        6272 dihedrals
        3840 impropers

           5 atom types
           8 bond types
          15 angle types
           4 dihedral types
           1 improper types
           0.000000  27.856000 xlo xhi
           0.000000  36.989003 ylo yhi
           0.000000  34.425658 zlo zhi
         -10.556838  -4.293531  -9.107859 xy xz yz

Masses

    1    65.380000000 # Zn4+2
    2     1.007940000 # H_
    3    12.010700000 # C_R
    4    14.006700000 # N_R
    5    15.999400000 # O_R

Bond Coeffs

    1      132.439384        2.028187  # Zn4+2 N_R
    2      127.647979        1.985391  # Zn4+2 O_R
    3      357.440381        1.081418  # H_ C_R
    4      462.655054        1.379256  # C_R C_R
    5      391.669513        1.458000  # C_R C_R
    6      646.680887        1.311940  # C_R O_R
    7      663.718927        1.345073  # C_R N_R
    8      929.109299        1.322497  # N_R N_R

Angle Coeffs

    1       63.300260               1               4 # N_R Zn4+2 O_R
    2       66.418124               1               4 # N_R Zn4+2 N_R
    3       60.397389               1               4 # O_R Zn4+2 O_R
    4      101.626578              -1               3 # C_R C_R C_R
    5      117.010657              -1               3 # C_R C_R C_R
    6      137.761490              -1               3 # C_R C_R O_R
    7      217.450257              -1               3 # O_R C_R O_R
    8       76.817955              -1               3 # H_ C_R C_R
    9      143.630586              -1               3 # C_R C_R N_R
   10      234.844275              -1               3 # N_R C_R N_R
   11       28.941661              -1               3 # Zn4+2 N_R C_R
   12       39.789296              -1               3 # Zn4+2 N_R N_R
   13      184.094783              -1               3 # C_R N_R N_R
   14      255.585151              -1               3 # N_R N_R N_R
   15       39.831479              -1               3 # Zn4+2 O_R C_R

Dihedral Coeffs

    1        1.497136              -1               2 # C_R C_R C_R C_R
    2        0.555556              -1               2 # C_R C_R C_R N_R
    3        2.245703              -1               2 # C_R C_R O_R Zn4+2
    4        3.368555              -1               2 # N_R N_R N_R N_R

Improper Coeffs

    1        2.000000        1.000000       -1.000000        0.000000               0 # C_R C_R C_R C_R

Pair Coeffs

    1        0.124000        2.461553 # Zn4+2 Zn4+2
    2        0.044000        2.571134 # H_ H_
    3        0.105000        3.430851 # C_R C_R
    4        0.069000        3.260689 # N_R N_R
    5        0.060000        3.118146 # O_R O_R

Atoms

       1      444        1     0.90895   -1.45538    3.88391    4.30166
       2      444        1     0.90895   -4.09459   13.13118    4.30166
       3      444        1     0.90895    5.50844    3.88392    4.30166
       4      444        1     0.90895    2.86922   13.13119    4.30166
       5      444        1     0.90895    0.16356    0.73612    4.30613
       6      444        1     0.90895   -2.47566    9.98341    4.30613
       7      444        1     0.90895    7.12727    0.73612    4.30613
       8      444        1     0.90895    4.48803    9.98341    4.30613
       9      444        1     0.90895    3.63328    0.80981   12.90962
      10      444        1     0.90895    0.99410   10.05711   12.90962
      11      444        1     0.90895   10.59707    0.80986   12.90962
      12      444        1     0.90895    7.95790   10.05717   12.90962
      13      444        1     0.90895    2.01600    3.96098   12.89241
      14      444        1     0.90895   -0.62484   13.20464   12.90618
      15      444        1     0.90895    8.97970    3.96100   12.89241
      16      444        1     0.90895    6.34057   13.20828   12.89241
      17      444        2     0.10273    5.38937    0.36390    0.40347
      18      444        2     0.10273    2.75013    9.61117    0.40347
      19      444        2     0.10273   12.35310    0.36396    0.40347
      20      444        2     0.10273    9.71385    9.61125    0.40347
      21      444        2     0.10273    0.26395    4.25237    0.39934
      22      444        2     0.10273   -2.37522   13.49966    0.39934
      23      444        2     0.10273    7.22763    4.25243    0.39934
      24      444        2     0.10273    4.58842   13.49970    0.39934
      25      444        2     0.10273   -1.84302   -0.30365   15.14540
      26      444        2     0.10273   -4.48217    8.94361   15.14540
      27      444        2     0.10273    5.12074   -0.30362   15.14540
      28      444        2     0.10273    2.48156    8.94365   15.14540
      29      444        2     0.10273   -2.10359   14.31521   15.15022
      30      444        2     0.10273    0.53561    5.06800   15.15022
      31      444        2     0.10273    4.86006   14.31529   15.15022
      32      444        2     0.10273    7.49925    5.06809   15.15022
      33      444        2     0.10273   -0.30654    4.44887    8.19554
      34      444        2     0.10273   -2.94572   13.69615    8.19554
      35      444        2     0.10273    6.65716    4.44885    8.19554
      36      444        2     0.10273    4.01793   13.69615    8.19554
      37      444        2     0.10273   -0.99689    0.20756    8.24391
      38      444        2     0.10273   -3.63604    9.45485    8.24391
      39      444        2     0.10273    5.96677    0.20756    8.24391
      40      444        2     0.10273    3.32764    9.45483    8.24391
      41      444        2     0.10273   -0.26406    4.48506   10.68159
      42      444        2     0.10273   -2.90321   13.73236   10.68159
      43      444        2     0.10273    6.69965    4.48507   10.68159
      44      444        2     0.10273    4.06046   13.73234   10.68159
      45      444        2     0.10273   -1.04479    0.22993   10.72962
      46      444        2     0.10273   -3.68390    9.47724   10.72962
      47      444        2     0.10273    5.91889    0.22995   10.72962
      48      444        2     0.10273    3.27978    9.47722   10.72962
      49      444        2     0.10273   -3.21152    4.32954   16.80867
      50      444        2     0.10273   -5.85064   13.57683   16.80867
      51      444        2     0.10273    3.75219    4.32958   16.80867
      52      444        2     0.10273    1.11313   13.57700   16.80833
      53      444        2     0.10273    1.91396    0.44105   16.81280
      54      444        2     0.10273   -0.72517    9.68838   16.81280
      55      444        2     0.10273    8.87762    0.44113   16.81280
      56      444        2     0.10273    6.23844    9.68843   16.81280
      57      444        2     0.10273    4.02085    4.99708    2.06692
      58      444        2     0.10273    1.38170   14.24436    2.06692
      59      444        2     0.10273   10.98455    4.99713    2.06692
      60      444        2     0.10273    8.34537   14.24444    2.06692
      61      444        2     0.10273   -0.99691    8.87272    2.06192
      62      444        2     0.10273    1.69289   -0.54192    2.04833
      63      444        2     0.10273    5.96847    8.87637    2.04833
      64      444        2     0.10273    8.65486   -0.54556    2.06210
      65      444        2     0.10273    2.48441    0.24459    9.01677
      66      444        2     0.10273   -0.15474    9.49190    9.01677
      67      444        2     0.10273    9.44808    0.24461    9.01677
      68      444        2     0.10273    6.80896    9.49190    9.01677
      69      444        2     0.10273    3.17480    4.48594    8.96823
      70      444        2     0.10273    0.53560   13.73325    8.96823
      71      444        2     0.10273   10.13847    4.48596    8.96823
      72      444        2     0.10273    7.49926   13.73327    8.96823
      73      444        2     0.10273    2.44194    0.20843    6.53055
      74      444        2     0.10273   -0.19723    9.45573    6.53055
      75      444        2     0.10273    9.40562    0.20845    6.53055
      76      444        2     0.10273    6.76646    9.45573    6.53055
      77      444        2     0.10273    3.22268    4.46355    6.48252
      78      444        2     0.10273    0.58345   13.71086    6.48252
      79      444        2     0.10273   10.18635    4.46357    6.48252
      80      444        2     0.10273    7.54711   13.71086    6.48252
      81      444        3    -0.10189    4.14768   -2.24159   14.96311
      82      444        3    -0.10189    1.50848    7.00568   14.96311
      83      444        3    -0.10189   11.11142   -2.24159   14.96311
      84      444        3    -0.10189    8.47222    7.00572   14.96311
      85      444        3     0.67807   -0.64737    2.30622    2.04265
      86      444        3     0.67807   -3.28657   11.55349    2.04265
      87      444        3     0.67807    6.31631    2.30622    2.04265
      88      444        3     0.67807    3.67706   11.55351    2.04265
      89      444        3    -0.10189   -0.65362    2.30738    0.55460
      90      444        3    -0.10189   -3.29283   11.55467    0.55460
      91      444        3    -0.10189    6.31012    2.30738    0.55460
      92      444        3    -0.10189    3.67089   11.55465    0.55460
      93      444        3    -0.05095    3.64056   -3.34073   17.06359
      94      444        3    -0.05095    1.00132    5.90656   17.06359
      95      444        3    -0.05095   10.60436   -3.34056   17.06308
      96      444        3    -0.05095    7.96509    5.90661   17.06359
      97      444        3    -0.05095   -2.28599   -1.14930   17.06136
      98      444        3    -0.05095   -4.92517    8.09799   17.06136
      99      444        3    -0.05095    4.67775   -1.14928   17.06136
     100      444        3    -0.05095    2.03855    8.09799   17.06136
     101      444        3    -0.05095   -2.27834   -1.15187   15.67108
     102      444        3    -0.05095   -4.91751    8.09542   15.67108
     103      444        3    -0.05095    4.68543   -1.15185   15.67108
     104      444        3    -0.05095    2.04623    8.09544   15.67108
     105      444        3    -0.05095    3.61733   -3.33340   15.67366
     106      444        3    -0.05095    0.97811    5.91388   15.67366
     107      444        3    -0.05095   10.58104   -3.33337   15.67366
     108      444        3    -0.05095    7.94183    5.91394   15.67366
     109      444        3     0.36046    4.13817   -2.24058   13.49933
     110      444        3     0.36046    1.49895    7.00671   13.49933
     111      444        3     0.36046   11.10185   -2.24056   13.49933
     112      444        3     0.36046    8.46267    7.00672   13.49933
     113      444        3     0.67807   -0.64273    2.31014    6.58838
     114      444        3     0.67807   -3.28193   11.55743    6.58838
     115      444        3     0.67807    6.32099    2.31012    6.58838
     116      444        3     0.67807    3.68177   11.55743    6.58838
     117      444        3     0.36046   -0.65694    2.37475   12.33609
     118      444        3     0.36046   -3.29607   11.62203   12.33609
     119      444        3     0.36046    6.30679    2.37476   12.33609
     120      444        3     0.36046    3.66764   11.62203   12.33609
     121      444        3    -0.05095   -0.44878    3.53156    8.76408
     122      444        3    -0.05095   -3.08794   12.77885    8.76408
     123      444        3    -0.05095    6.51493    3.53156    8.76408
     124      444        3    -0.05095    3.87574   12.77883    8.76408
     125      444        3    -0.05095   -0.85601    1.13811    8.79094
     126      444        3    -0.05095   -3.49512   10.38549    8.79059
     127      444        3    -0.05095    6.10771    1.13820    8.79059
     128      444        3    -0.05095    3.46858   10.38547    8.79059
     129      444        3    -0.05095   -0.43384    3.54730   10.15419
     130      444        3    -0.05095   -3.07299   12.79459   10.15419
     131      444        3    -0.05095    6.52985    3.54730   10.15419
     132      444        3    -0.05095    3.89067   12.79459   10.15419
     133      444        3    -0.10189   -0.65033    2.32651    8.07609
     134      444        3    -0.10189   -3.28907   11.57466    8.07282
     135      444        3    -0.10189    6.31380    2.32737    8.07282
     136      444        3    -0.10189    3.67460   11.57464    8.07282
     137      444        3    -0.05095   -0.87457    1.15521   10.18087
     138      444        3    -0.05095   -3.51371   10.40252   10.18087
     139      444        3    -0.05095    6.08912    1.15523   10.18087
     140      444        3    -0.05095    3.45014   10.40282   10.17967
     141      444        3    -0.10189   -0.65468    2.35929   10.87248
     142      444        3    -0.10189   -3.29381   11.60659   10.87248
     143      444        3    -0.10189    6.30902    2.35930   10.87248
     144      444        3    -0.10189    3.66989   11.60657   10.87248
     145      444        3    -0.10189   -1.96985    6.93509    2.24903
     146      444        3    -0.10189   -4.60900   16.18238    2.24903
     147      444        3    -0.10189    4.99391    6.93509    2.24903
     148      444        3    -0.10189    2.35477   16.18240    2.24903
     149      444        3     0.67807    2.82525    2.38724   15.16949
     150      444        3     0.67807    0.18614   11.63459   15.16949
     151      444        3     0.67807    9.78894    2.38728   15.16949
     152      444        3     0.67807    7.14980   11.63461   15.16949
     153      444        3    -0.10189    2.83143    2.38606   16.65772
     154      444        3    -0.10189    0.19232   11.63338   16.65772
     155      444        3    -0.10189    9.79518    2.38608   16.65772
     156      444        3    -0.10189    7.15602   11.63338   16.65772
     157      444        3    -0.05095   -1.46273    8.03420    0.14855
     158      444        3    -0.05095   -4.10187   17.28148    0.14855
     159      444        3    -0.05095    5.50101    8.03422    0.14855
     160      444        3    -0.05095    2.86190   17.28154    0.14855
     161      444        3    -0.05095    4.46381    5.84272    0.15096
     162      444        3    -0.05095    1.82469   15.09003    0.15096
     163      444        3    -0.05095   11.42754    5.84276    0.15096
     164      444        3    -0.05095    8.78837   15.09006    0.15096
     165      444        3    -0.05095    4.45617    5.84533    1.54106
     166      444        3    -0.05095    1.81702   15.09264    1.54106
     167      444        3    -0.05095   11.41990    5.84537    1.54106
     168      444        3    -0.05095    8.78073   15.09268    1.54106
     169      444        3    -0.05095   -1.43946    8.02687    1.53848
     170      444        3    -0.05095   -4.07860   17.27416    1.53848
     171      444        3    -0.05095    5.52426    8.02689    1.53848
     172      444        3    -0.05095    2.88513   17.27419    1.53848
     173      444        3     0.36046   -1.96029    6.93409    3.71281
     174      444        3     0.36046   -4.59947   16.18133    3.71298
     175      444        3     0.36046    5.00345    6.93409    3.71281
     176      444        3     0.36046    2.36426   16.18135    3.71298
     177      444        3     0.67807    2.82056    2.38332   10.62393
     178      444        3     0.67807    0.18142   11.63063   10.62393
     179      444        3     0.67807    9.78427    2.38334   10.62393
     180      444        3     0.67807    7.14510   11.63065   10.62393
     181      444        3     0.36046    2.83477    2.31871    4.87622
     182      444        3     0.36046    0.19556   11.56600    4.87622
     183      444        3     0.36046    9.79849    2.31873    4.87622
     184      444        3     0.36046    7.15927   11.56602    4.87622
     185      444        3    -0.05095    2.62665    1.16195    8.44806
     186      444        3    -0.05095   -0.01251   10.40925    8.44806
     187      444        3    -0.05095    9.59034    1.16196    8.44806
     188      444        3    -0.05095    6.95119   10.40925    8.44806
     189      444        3    -0.05095    3.03390    3.55540    8.42120
     190      444        3    -0.05095    0.39472   12.80270    8.42120
     191      444        3    -0.05095    9.99759    3.55541    8.42120
     192      444        3    -0.05095    7.35840   12.80270    8.42120
     193      444        3    -0.05095    2.61172    1.14620    7.05795
     194      444        3    -0.05095   -0.02745   10.39351    7.05795
     195      444        3    -0.05095    9.57540    1.14622    7.05795
     196      444        3    -0.05095    6.93632   10.39369    7.05726
     197      444        3    -0.10189    2.82818    2.36699    9.13605
     198      444        3    -0.10189    0.18902   11.61430    9.13605
     199      444        3    -0.10189    9.79187    2.36701    9.13605
     200      444        3    -0.10189    7.15272   11.61430    9.13605
     201      444        3    -0.05095    3.05245    3.53827    7.03127
     202      444        3    -0.05095    0.41325   12.78558    7.03127
     203      444        3    -0.05095   10.01613    3.53829    7.03127
     204      444        3    -0.05095    7.37692   12.78560    7.03127
     205      444        3    -0.10189    2.83253    2.33415    6.33983
     206      444        3    -0.10189    0.19333   11.58146    6.33983
     207      444        3    -0.10189    9.79622    2.33419    6.33983
     208      444        3    -0.10189    7.15702   11.58148    6.33983
     209      444        4    -0.31466    3.94176   -1.16573   12.70548
     210      444        4    -0.31466    1.30259    8.08157   12.70548
     211      444        4    -0.31466   10.90556   -1.16551   12.70479
     212      444        4    -0.31466    8.26632    8.08161   12.70548
     213      444        4    -0.31466   -1.55309    1.75545   13.13046
     214      444        4    -0.31466   -4.19223   11.00275   13.13046
     215      444        4    -0.31466    5.41066    1.75545   13.13046
     216      444        4    -0.31466    2.77151   11.00272   13.13046
     217      444        4    -0.06668   -0.12920    2.76714   14.41781
     218      444        4    -0.06668   -2.76832   12.01441   14.41781
     219      444        4    -0.06668    6.83452    2.76718   14.41781
     220      444        4    -0.06668    4.19542   12.01439   14.41781
     221      444        4    -0.06668   -1.19648    2.01928   14.42211
     222      444        4    -0.06668   -3.83564   11.26659   14.42211
     223      444        4    -0.06668    5.76729    2.01927   14.42211
     224      444        4    -0.06668    3.12807   11.26663   14.42211
     225      444        4    -0.06668    4.00627   -1.60027   11.41004
     226      444        4    -0.06668    1.36707    7.64703   11.41004
     227      444        4    -0.06668   10.97005   -1.59989   11.40866
     228      444        4    -0.06668    8.33079    7.64705   11.41004
     229      444        4    -0.06668    4.22994   -2.88481   11.40935
     230      444        4    -0.06668    1.59073    6.36249   11.40935
     231      444        4    -0.06668   11.19360   -2.88479   11.40935
     232      444        4    -0.06668    8.55436    6.36251   11.40935
     233      444        4    -0.31466    0.23491    3.00826   13.12375
     234      444        4    -0.31466   -2.40422   12.25557   13.12375
     235      444        4    -0.31466    7.19862    3.00830   13.12375
     236      444        4    -0.31466    4.55947   12.25559   13.12375
     237      444        4    -0.31466    4.32041   -3.31662   12.70393
     238      444        4    -0.31466    1.68116    5.93067   12.70393
     239      444        4    -0.31466   11.28407   -3.31660   12.70393
     240      444        4    -0.31466    8.64487    5.93068   12.70393
     241      444        4    -0.31466   -1.76391    5.85922    4.50666
     242      444        4    -0.31466   -4.40311   15.10651    4.50666
     243      444        4    -0.31466    5.19980    5.85924    4.50666
     244      444        4    -0.31466    2.56064   15.10652    4.50666
     245      444        4    -0.31466    3.73090    2.93803    4.08185
     246      444        4    -0.31466    1.09169   12.18532    4.08185
     247      444        4    -0.31466   10.69465    2.93801    4.08185
     248      444        4    -0.31466    8.05542   12.18530    4.08185
     249      444        4    -0.06668    2.30703    1.92638    2.79433
     250      444        4    -0.06668   -0.33220   11.17369    2.79433
     251      444        4    -0.06668    9.27076    1.92640    2.79433
     252      444        4    -0.06668    6.63155   11.17365    2.79433
     253      444        4    -0.06668    3.37429    2.67419    2.79020
     254      444        4    -0.06668    0.73506   11.92150    2.79020
     255      444        4    -0.06668   10.33804    2.67419    2.79020
     256      444        4    -0.06668    7.69880   11.92150    2.79020
     257      444        4    -0.06668   -1.82833    6.29378    5.80210
     258      444        4    -0.06668   -4.46750   15.54105    5.80210
     259      444        4    -0.06668    5.13538    6.29378    5.80210
     260      444        4    -0.06668    2.49623   15.54106    5.80210
     261      444        4    -0.06668   -2.05193    7.57831    5.80279
     262      444        4    -0.06668   -4.69121   16.82558    5.80279
     263      444        4    -0.06668    4.91161    7.57830    5.80279
     264      444        4    -0.06668    2.27241   16.82558    5.80279
     265      444        4    -0.31466    1.94296    1.68522    4.08839
     266      444        4    -0.31466   -0.69627   10.93253    4.08839
     267      444        4    -0.31466    8.90667    1.68524    4.08839
     268      444        4    -0.31466    6.26744   10.93253    4.08839
     269      444        4    -0.31466   -2.14247    8.01013    4.50821
     270      444        4    -0.31466   -4.78165   17.25746    4.50804
     271      444        4    -0.31466    4.82123    8.01014    4.50821
     272      444        4    -0.31466    2.18208   17.25748    4.50804
     273      444        5    -0.59408   -0.78773    1.18028    2.63528
     274      444        5    -0.59408   -3.42696   10.42757    2.63528
     275      444        5    -0.59408    6.17597    1.18017    2.63563
     276      444        5    -0.59408    3.53673   10.42746    2.63563
     277      444        5    -0.59408   -0.50395    3.43227    2.63408
     278      444        5    -0.59408   -3.14312   12.67969    2.63356
     279      444        5    -0.59408    6.45986    3.43225    2.63408
     280      444        5    -0.59408    3.82064   12.67954    2.63408
     281      444        5    -0.59408   -0.54159    3.43260    5.98456
     282      444        5    -0.59408   -3.18081   12.67987    5.98456
     283      444        5    -0.59408    6.42217    3.43258    5.98456
     284      444        5    -0.59408    3.78298   12.67987    5.98456
     285      444        5    -0.59408   -0.73539    1.17602    6.00521
     286      444        5    -0.59408   -3.37463   10.42331    6.00521
     287      444        5    -0.59408    6.22829    1.17602    6.00521
     288      444        5    -0.59408    3.58909   10.42331    6.00521
     289      444        5    -0.59408    2.96560    3.51329   14.57651
     290      444        5    -0.59408    0.32650   12.76062   14.57651
     291      444        5    -0.59408    9.92932    3.51333   14.57651
     292      444        5    -0.59408    7.29021   12.76064   14.57651
     293      444        5    -0.59408    2.68168    1.26117   14.57823
     294      444        5    -0.59408    0.04254   10.50851   14.57823
     295      444        5    -0.59408    9.64548    1.26119   14.57823
     296      444        5    -0.59408    7.00633   10.50851   14.57823
     297      444        5    -0.59408    2.71942    1.26086   11.22776
     298      444        5    -0.59408    0.08026   10.50816   11.22776
     299      444        5    -0.59408    9.68319    1.26087   11.22776
     300      444        5    -0.59408    7.04402   10.50818   11.22776
     301      444        5    -0.59408    2.91328    3.51748   11.20693
     302      444        5    -0.59408    0.27414   12.76477   11.20693
     303      444        5    -0.59408    9.87698    3.51750   11.20693
     304      444        5    -0.59408    7.23783   12.76480   11.20693
     305      444        1     0.90895   -3.60214   -0.67002   21.51449
     306      444        1     0.90895   -6.24136    8.57725   21.51449
     307      444        1     0.90895    3.36167   -0.67000   21.51449
     308      444        1     0.90895    0.72246    8.57726   21.51449
     309      444        1     0.90895   -1.98320   -3.81781   21.51896
     310      444        1     0.90895   -4.62242    5.42948   21.51896
     311      444        1     0.90895    4.98050   -3.81781   21.51896
     312      444        1     0.90895    2.34127    5.42948   21.51896
     313      444        1     0.90895    1.48652   -3.74412   30.12245
     314      444        1     0.90895   -1.15267    5.50318   30.12245
     315      444        1     0.90895    8.45031   -3.74407   30.12245
     316      444        1     0.90895    5.81114    5.50324   30.12245
     317      444        1     0.90895   -0.13077   -0.59295   30.10524
     318      444        1     0.90895   -2.77160    8.65071   30.11901
     319      444        1     0.90895    6.83293   -0.59293   30.10524
     320      444        1     0.90895    4.19381    8.65435   30.10524
     321      444        2     0.10273    3.24260   -4.19003   17.61630
     322      444        2     0.10273    0.60336    5.05724   17.61630
     323      444        2     0.10273   10.20634   -4.18997   17.61630
     324      444        2     0.10273    7.56709    5.05732   17.61630
     325      444        2     0.10273   -1.88282   -0.30155   17.61217
     326      444        2     0.10273   -4.52198    8.94573   17.61217
     327      444        2     0.10273    5.08086   -0.30150   17.61217
     328      444        2     0.10273    2.44166    8.94577   17.61217
     329      444        2     0.10273   -3.98979   -4.85758   32.35823
     330      444        2     0.10273   -6.62894    4.38968   32.35823
     331      444        2     0.10273    2.97398   -4.85755   32.35823
     332      444        2     0.10273    0.33479    4.38972   32.35823
     333      444        2     0.10273   -4.25035    9.76128   32.36304
     334      444        2     0.10273   -1.61116    0.51407   32.36304
     335      444        2     0.10273    2.71329    9.76136   32.36304
     336      444        2     0.10273    5.35248    0.51416   32.36304
     337      444        2     0.10273   -2.45331   -0.10506   25.40837
     338      444        2     0.10273   -5.09248    9.14223   25.40837
     339      444        2     0.10273    4.51039   -0.10508   25.40837
     340      444        2     0.10273    1.87117    9.14223   25.40837
     341      444        2     0.10273   -3.14366   -4.34637   25.45674
     342      444        2     0.10273   -5.78281    4.90092   25.45674
     343      444        2     0.10273    3.82001   -4.34637   25.45674
     344      444        2     0.10273    1.18088    4.90090   25.45674
     345      444        2     0.10273   -2.41082   -0.06887   27.89442
     346      444        2     0.10273   -5.04998    9.17843   27.89442
     347      444        2     0.10273    4.55288   -0.06885   27.89442
     348      444        2     0.10273    1.91369    9.17841   27.89442
     349      444        2     0.10273   -3.19155   -4.32400   27.94245
     350      444        2     0.10273   -5.83067    4.92331   27.94245
     351      444        2     0.10273    3.77212   -4.32398   27.94245
     352      444        2     0.10273    1.13302    4.92329   27.94245
     353      444        2     0.10273   -5.35829   -0.22439   34.02150
     354      444        2     0.10273   -7.99741    9.02290   34.02150
     355      444        2     0.10273    1.60543   -0.22435   34.02150
     356      444        2     0.10273   -1.03364    9.02307   34.02116
     357      444        2     0.10273   -0.23280   -4.11287   34.02563
     358      444        2     0.10273   -2.87194    5.13445   34.02563
     359      444        2     0.10273    6.73085   -4.11280   34.02563
     360      444        2     0.10273    4.09167    5.13451   34.02563
     361      444        2     0.10273    1.87408    0.44315   19.27975
     362      444        2     0.10273   -0.76507    9.69043   19.27975
     363      444        2     0.10273    8.83779    0.44320   19.27975
     364      444        2     0.10273    6.19860    9.69051   19.27975
     365      444        2     0.10273   -3.14367    4.31879   19.27475
     366      444        2     0.10273   -0.45387   -5.09585   19.26116
     367      444        2     0.10273    3.82170    4.32244   19.26116
     368      444        2     0.10273    6.50809   -5.09949   19.27493
     369      444        2     0.10273    0.33764   -4.30934   26.22960
     370      444        2     0.10273   -2.30150    4.93797   26.22960
     371      444        2     0.10273    7.30132   -4.30932   26.22960
     372      444        2     0.10273    4.66219    4.93797   26.22960
     373      444        2     0.10273    1.02803   -0.06799   26.18106
     374      444        2     0.10273   -1.61117    9.17932   26.18106
     375      444        2     0.10273    7.99170   -0.06797   26.18106
     376      444        2     0.10273    5.35249    9.17934   26.18106
     377      444        2     0.10273    0.29517   -4.34550   23.74338
     378      444        2     0.10273   -2.34400    4.90181   23.74338