Created on Tue Feb 06 15:49:24 2018 

        1376 atoms
        1856 bonds
        4704 angles
        3200 dihedrals
        1920 impropers

           7 atom types
           9 bond types
          19 angle types
           5 dihedral types
           1 improper types
           0.000000  26.166000 xlo xhi
           0.000000  36.539964 ylo yhi
           0.000000  36.613493 zlo zhi
          -0.051019   0.076045   0.177118 xy xz yz

Masses

    1   137.327000000 # Ba6+2
    2   112.411000000 # Cd3+2
    3     1.007940000 # H_
    4    12.010700000 # C_R
    5    14.006700000 # N_3
    6    15.999400000 # O_3_z
    7    15.999400000 # O_R

Bond Coeffs

    1       99.935453        2.751925  # Ba6+2 O_R
    2      114.937445        2.626572  # Ba6+2 O_3_z
    3       31.918197        3.603980  # Ba6+2 Cd3+2
    4      147.192711        2.045725  # Cd3+2 O_R
    5      357.440381        1.081418  # H_ C_R
    6      462.655054        1.379256  # C_R C_R
    7      391.669513        1.458000  # C_R C_R
    8      646.680887        1.311940  # C_R O_R
    9     1060.214405        1.223740  # N_3 O_3_z

Angle Coeffs

    1              cosine/periodic       13.228300               1               4 # O_3_z Ba6+2 O_R
    2              cosine/periodic        3.943923               1               4 # O_R Ba6+2 Cd3+2
    3              cosine/periodic       11.804980               1               4 # O_R Ba6+2 O_R
    4              cosine/periodic        4.286729               1               4 # O_3_z Ba6+2 Cd3+2
    5              cosine/periodic       14.903965               1               4 # O_3_z Ba6+2 O_3_z
    6                      fourier       30.023701        0.343737        0.374972        0.281246 # O_R Cd3+2 O_R
    7                      fourier        6.658123        0.343737        0.374972        0.281246 # Ba6+2 Cd3+2 O_R
    8                      fourier        2.487158        0.343737        0.374972        0.281246 # Ba6+2 Cd3+2 Ba6+2
    9              cosine/periodic      117.010657              -1               3 # C_R C_R C_R
   10              cosine/periodic      101.626578              -1               3 # C_R C_R C_R
   11              cosine/periodic       76.817955              -1               3 # C_R C_R H_
   12              cosine/periodic      217.450257              -1               3 # O_R C_R O_R
   13              cosine/periodic      137.761490              -1               3 # O_R C_R C_R
   14                      fourier      420.264491        0.317506        0.313225        0.272502 # O_3_z N_3 O_3_z
   15                      fourier       29.560859        1.898490        2.651251        0.799497 # Ba6+2 O_3_z N_3
   16                      fourier        6.129338        1.898490        2.651251        0.799497 # Ba6+2 O_3_z Ba6+2
   17              cosine/periodic       27.455638              -1               3 # Ba6+2 O_R C_R
   18              cosine/periodic       45.673393              -1               3 # Cd3+2 O_R C_R
   19              cosine/periodic       11.167626              -1               3 # Cd3+2 O_R Ba6+2

Dihedral Coeffs

    1        1.497136              -1               2 # C_R C_R C_R H_
    2        0.555556              -1               2 # C_R C_R C_R O_R
    3        2.245703              -1               2 # C_R C_R O_R Ba6+2
    4        0.052705               1               2 # O_3_z N_3 O_3_z Ba6+2
    5        0.079057               1               2 # O_3_z N_3 O_3_z Ba6+2

Improper Coeffs

    1        2.000000        1.000000       -1.000000        0.000000               0 # C_R C_R C_R C_R

Pair Coeffs

    1        0.364000        3.298998 # Ba6+2 Ba6+2
    2        0.228000        2.537280 # Cd3+2 Cd3+2
    3        0.044000        2.571134 # H_ H_
    4        0.105000        3.430851 # C_R C_R
    5        0.069000        3.260689 # N_3 N_3
    6        0.060000        3.118146 # O_3_z O_3_z
    7        0.060000        3.118146 # O_R O_R

Atoms

       1      444        1     1.62604    2.17768    2.84353   11.12830
       2      444        1     1.62604    8.66574   15.50790    7.15611
       3      444        1     1.62604    5.44359   16.37096   11.91934
       4      444        1     1.62604   11.98294    1.98731    6.38503
       5      444        1     1.62604    1.16164    6.36949    1.98756
       6      444        1     1.62604    7.69709   12.00778   16.34243
       7      444        1     1.62604   10.94512   11.12090    2.77274
       8      444        1     1.62604    4.47032    7.22614   15.51863
       9      444        2     1.05892    3.31811    6.40708   11.95321
      10      444        2     1.05892    9.81099   11.95634    6.33468
      11      444        2     1.05892    6.56668   15.55364   15.48842
      12      444        2     1.05892    0.01171    2.82867    2.81777
      13      444        3     0.09859    2.01510    4.35374    7.57002
      14      444        3     0.09859    3.95703    5.44516    3.88414
      15      444        3     0.09859    5.55962    6.85245    5.14401
      16      444        3     0.09859    5.36530    7.03759    7.63977
      17      444        3     0.09859    8.52470   13.99724   10.73013
      18      444        3     0.09859   10.48993   12.90573   14.40393
      19      444        3     0.09859   12.08890   11.50428   13.13271
      20      444        3     0.09859   11.88293   11.32424   10.63750
      21      444        3     0.09859    5.32138    1.67065   13.43880
      22      444        3     0.09859    7.27137    5.34828   14.54379
      23      444        3     0.09859    8.87552    4.07925   15.94243
      24      444        3     0.09859    8.67533    1.58307   16.11817
      25      444        3     0.09859   11.79301   16.69365    4.84213
      26      444        3     0.09859    0.66818   13.02596    3.71865
      27      444        3     0.09859    2.26657   14.30551    2.32331
      28      444        3     0.09859    2.05887   16.80165    2.15782
      29      444        3     0.09859    1.35177    4.92408   16.70655
      30      444        3     0.09859   12.47428    3.78003   13.04575
      31      444        3     0.09859   10.86473    2.40787   14.33546
      32      444        3     0.09859   11.06372    2.26932   16.83415
      33      444        3     0.09859    7.81977   13.46687    1.46454
      34      444        3     0.09859    5.87817   14.57611    5.25477
      35      444        3     0.09859    4.26562   15.96526    3.98739
      36      444        3     0.09859    4.45253   16.12960    1.48925
      37      444        3     0.09859   11.10838    7.55420    4.30666
      38      444        3     0.09859    9.16034    3.88122    5.43161
      39      444        3     0.09859    7.55577    5.15645    6.82476
      40      444        3     0.09859    7.75769    7.65313    6.98988
      41      444        3     0.09859    4.58551   10.81676   14.00777
      42      444        3     0.09859    2.60937   14.47742   12.89253
      43      444        3     0.09859    1.00211   13.18973   11.51403
      44      444        3     0.09859    1.21949   10.69501   11.34616
      45      444        4    -0.18357    3.69128    5.69556    7.75492
      46      444        4    -0.03171    2.79139    4.90103    7.03986
      47      444        4    -0.18357    2.86082    4.82579    5.64489
      48      444        4    -0.03171    3.86859    5.52909    4.96479
      49      444        4    -0.03171    4.77656    6.31508    5.67820
      50      444        4    -0.03171    4.68270    6.41119    7.06640
      51      444        4     0.72549    3.56972    5.79989    9.24088
      52      444        4     0.72549    1.83924    4.01411    4.91280
      53      444        4    -0.18357   10.20283   12.66002   10.53407
      54      444        4    -0.03171    9.30480   13.45080   11.25554
      55      444        4    -0.18357    9.38266   13.52502   12.65033
      56      444        4    -0.03171   10.39539   12.82256   13.32255
      57      444        4    -0.03171   11.30160   12.04054   12.60365
      58      444        4    -0.03171   11.20058   11.94655   11.21563
      59      444        4     0.72549   10.07328   12.55935    9.04811
      60      444        4     0.72549    8.36849   14.33971   13.38919
      61      444        4    -0.18357    7.00048    1.47676   14.77702
      62      444        4    -0.03171    6.09982    2.19676   13.98709
      63      444        4    -0.18357    6.17136    3.59235   13.91953
      64      444        4    -0.03171    7.18259    4.26598   14.62160
      65      444        4    -0.03171    8.09084    3.54888   15.40385
      66      444        4    -0.03171    7.99376    2.16044   15.49446
      67      444        4     0.72549    6.85021   18.26059   14.87954
      68      444        4     0.72549    5.14764    4.33499   13.12008
      69      444        4    -0.18357    0.38502   16.89705    3.50153
      70      444        4    -0.03171   12.57138   16.17123    4.28927
      71      444        4    -0.18357   12.64730   14.77591    4.35261
      72      444        4    -0.03171    0.57581   14.10821    3.64414
      73      444        4    -0.03171    1.48087   14.83131    2.86501
      74      444        4    -0.03171    1.37932   16.21980    2.77951
      75      444        4     0.72549    0.28273    0.11337    3.41110
      76      444        4     0.72549   11.63007   14.02668    5.15408
      77      444        4    -0.18357   12.74871    3.59968   16.91964
      78      444        4    -0.03171    0.57001    4.37353   16.18774
      79      444        4    -0.18357    0.49630    4.42341   14.79148
      80      444        4    -0.03171   12.56444    3.71526   14.12878
      81      444        4    -0.03171   11.65271    2.94965   14.85776
      82      444        4    -0.03171   11.74978    2.87917   16.24724
      83      444        4     0.72549   12.83557    3.43033    0.10050
      84      444        4     0.72549    1.51725    5.21388   14.03651
      85      444        4    -0.18357    6.13402   14.79646    1.38198
      86      444        4    -0.03171    7.04109   14.01385    2.10143
      87      444        4    -0.18357    6.97438   13.94895    3.49695
      88      444        4    -0.03171    5.96380   14.65219    4.17211
      89      444        4    -0.03171    5.04991   15.42725    3.45576
      90      444        4    -0.03171    5.14024   15.51233    2.06500
      91      444        4     0.72549    6.28946   14.97721   18.20148
      92      444        4     0.72549    7.99942   13.14808    4.23636
      93      444        4    -0.18357    9.43134    7.75272    5.64690
      94      444        4    -0.03171   10.33102    7.02995    4.85843
      95      444        4    -0.18357   10.25855    5.63432    4.79728
      96      444        4    -0.03171    9.24824    4.96375    5.50520
      97      444        4    -0.03171    8.34070    5.68408    6.28361
      98      444        4    -0.03171    8.43853    7.07266    6.36837
      99      444        4     0.72549    9.55214    9.23909    5.74008
     100      444        4     0.72549   11.27742    4.88559    3.99856
     101      444        4    -0.18357    2.90456   10.60668   12.67669
     102      444        4    -0.03171    3.80217   11.33616   13.46022
     103      444        4    -0.18357    3.72172   12.73088   13.52228
     104      444        4    -0.03171    2.70346   13.39518   12.82021
     105      444        4    -0.03171    1.79461   12.66763   12.04932
     106      444        4    -0.03171    1.90115   11.27946   11.96309
     107      444        4     0.72549    3.04661    9.12233   12.58095
     108      444        4     0.72549    4.74313   13.47834   14.31899
     109      444        5     0.89221   12.34905    2.43076    9.64418
     110      444        5     0.89221    5.76539   15.91241    8.65744
     111      444        5     0.89221    2.53052   17.85656   11.57719
     112      444        5     0.89221    9.06176    0.50146    6.73048
     113      444        5     0.89221    4.07854    6.71860    0.47817
     114      444        5     0.89221   10.61982   11.66007   17.82601
     115      444        5     0.89221    0.77347    9.62142    2.42308
     116      444        5     0.89221    7.36699    8.74190   15.91717
     117      444        6    -0.66754    0.34028    2.33673    8.91264
     118      444        6    -0.51052   12.46483    2.68142   10.87512
     119      444        6    -0.51052   11.22331    2.27522    9.09845
     120      444        7    -0.70279    2.69274    5.06890    9.83585
     121      444        7    -0.57776    4.31109    6.61423    9.86990
     122      444        7    -0.70279    1.15251    3.16534    5.54548
     123      444        7    -0.72717    1.69088    4.24130    3.64744
     124      444        6    -0.66754    6.84646   15.97583    9.38422
     125      444        6    -0.51052    5.87002   15.67472    7.42302
     126      444        6    -0.51052    4.64655   16.08518    9.21104
     127      444        7    -0.70279    9.19022   13.28979    8.46156
     128      444        7    -0.57776   10.81340   11.74912    8.41213
     129      444        7    -0.70279    7.68238   15.19172   12.75980
     130      444        7    -0.72717    8.22551   14.11543   14.65547
     131      444        6    -0.66754    3.62008    0.05562   11.49700
     132      444        6    -0.51052    2.66806   16.62033   11.79046
     133      444        6    -0.51052    1.42118    0.05536   11.44428
     134      444        7    -0.70279    5.99028   17.66530   14.12951
     135      444        7    -0.57776    7.56977   17.63094   15.71286
     136      444        7    -0.70279    4.43746    3.70939   12.28493
     137      444        7    -0.72717    5.02004    5.60313   13.34360
     138      444        6    -0.66754   10.10109   18.02297    6.80828
     139      444        6    -0.51052    9.19686    1.73838    6.51976
     140      444        6    -0.51052    7.90215   18.23814    6.86228
     141      444        7    -0.70279   12.51097    0.70043    4.17229
     142      444        7    -0.57776    0.99630    0.75061    2.57796
     143      444        7    -0.70279   10.92682   14.64393    6.00223
     144      444        7    -0.72717   11.50127   12.76062    4.91902
     145      444        6    -0.66754    3.04809    6.88347   18.04185
     146      444        6    -0.51052    3.94925    6.51361    1.71681
     147      444        6    -0.51052    5.24801    6.93519   18.24505
     148      444        7    -0.70279    0.63329    4.16670    0.68174
     149      444        7    -0.57776   12.09317    2.62740    0.74289
     150      444        7    -0.70279    2.22706    6.06040   14.64833
     151      444        7    -0.72717    1.64252    4.97668   12.77115
     152      444        6    -0.66754    9.51493   11.47775    0.00000
     153      444        6    -0.51052   10.48702   11.89881   16.59323
     154      444        6    -0.51052   11.71417   11.42530    0.00000
     155      444        7    -0.70279    7.16966   14.24271   17.61402
     156      444        7    -0.57776    5.54655   15.78285   17.56422
     157      444        7    -0.70279    8.70047   12.30540    3.61027
     158      444        7    -0.72717    8.13473   13.37688    5.50264
     159      444        6    -0.66754   12.79320    8.87222    2.34326
     160      444        6    -0.51052    0.63750   10.85776    2.63599
     161      444        6    -0.51052    1.90849    9.08923    2.28999
     162      444        7    -0.70279   10.40503    9.83362    4.98163
     163      444        7    -0.57776    8.83320    9.86954    6.57322
     164      444        7    -0.70279   11.97960    5.49949    3.14748
     165      444        7    -0.72717   11.40877    3.62038    4.23710
     166      444        6    -0.66754    6.29583    9.47945   16.00870
     167      444        6    -0.51052    7.24225    7.50984   15.67259
     168      444        6    -0.51052    8.49585    9.28058   16.06911
     169      444        7    -0.70279    3.91656    8.54274   13.32951
     170      444        7    -0.57776    2.32937    8.48200   11.75275
     171      444        7    -0.70279    5.43406   12.86124   15.17666
     172      444        7    -0.72717    4.88895   14.74008   14.07203
     173      444        1     1.62604    2.21570    2.93209   29.43505
     174      444        1     1.62604    8.70377   15.59646   25.46285
     175      444        1     1.62604    5.48161   16.45952   30.22609
     176      444        1     1.62604   12.02096    2.07587   24.69177
     177      444        1     1.62604    1.19966    6.45805   20.29431
     178      444        1     1.62604    7.73511   12.09634   34.64918
     179      444        1     1.62604   10.98314   11.20946   21.07949
     180      444        1     1.62604    4.50835    7.31470   33.82538
     181      444        2     1.05892    3.35613    6.49564   30.25995
     182      444        2     1.05892    9.84902   12.04490   24.64143
     183      444        2     1.05892    6.60471   15.64220   33.79517
     184      444        2     1.05892    0.04973    2.91723   21.12452
     185      444        3     0.09859    2.05312    4.44230   25.87677
     186      444        3     0.09859    3.99505    5.53372   22.19089
     187      444        3     0.09859    5.59764    6.94101   23.45076
     188      444        3     0.09859    5.40332    7.12615   25.94652
     189      444        3     0.09859    8.56272   14.08580   29.03688
     190      444        3     0.09859   10.52796   12.99429   32.71068
     191      444        3     0.09859   12.12692   11.59284   31.43946
     192      444        3     0.09859   11.92095   11.41280   28.94425
     193      444        3     0.09859    5.35940    1.75921   31.74555
     194      444        3     0.09859    7.30939    5.43684   32.85054
     195      444        3     0.09859    8.91354    4.16781   34.24918
     196      444        3     0.09859    8.71335    1.67163   34.42492
     197      444        3     0.09859   11.83103   16.78221   23.14888
     198      444        3     0.09859    0.70620   13.11452   22.02540
     199      444        3     0.09859    2.30459   14.39407   20.63006
     200      444        3     0.09859    2.09689   16.89021   20.46456
     201      444        3     0.09859    1.38979    5.01264   35.01330
     202      444        3     0.09859   12.51230    3.86859   31.35250
     203      444        3     0.09859   10.90275    2.49643   32.64221
     204      444        3     0.09859   11.10174    2.35788   35.14090
     205      444        3     0.09859    7.85780   13.55543   19.77129
     206      444        3     0.09859    5.91619   14.66467   23.56151
     207      444        3     0.09859    4.30365   16.05382   22.29414
     208      444        3     0.09859    4.49056   16.21816   19.79600
     209      444        3     0.09859   11.14640    7.64276   22.61341
     210      444        3     0.09859    9.19836    3.96978   23.73836
     211      444        3     0.09859    7.59379    5.24501   25.13150
     212      444        3     0.09859    7.79571    7.74169   25.29663
     213      444        3     0.09859    4.62353   10.90532   32.31452
     214      444        3     0.09859    2.64739   14.56598   31.19927
     215      444        3     0.09859    1.04013   13.27829   29.82077
     216      444        3     0.09859    1.25751   10.78357   29.65290
     217      444        4    -0.18357    3.72930    5.78412   26.06167
     218      444        4    -0.03171    2.82941    4.98959   25.34661
     219      444        4    -0.18357    2.89884    4.91435   23.95163
     220      444        4    -0.03171    3.90661    5.61765   23.27154
     221      444        4    -0.03171    4.81458    6.40364   23.98495
     222      444        4    -0.03171    4.72072    6.49975   25.37315
     223      444        4     0.72549    3.60774    5.88845   27.54763
     224      444        4     0.72549    1.87726    4.10267   23.21954
     225      444        4    -0.18357   10.24085   12.74858   28.84081
     226      444        4    -0.03171    9.34282   13.53936   29.56228
     227      444        4    -0.18357    9.42068   13.61358   30.95707
     228      444        4    -0.03171   10.43341   12.91112   31.62930
     229      444        4    -0.03171   11.33962   12.12910   30.91039
     230      444        4    -0.03171   11.23861   12.03511   29.52237
     231      444        4     0.72549   10.11130   12.64791   27.35486
     232      444        4     0.72549    8.40651   14.42827   31.69593
     233      444        4    -0.18357    7.03850    1.56532   33.08377
     234      444        4    -0.03171    6.13784    2.28531   32.29383
     235      444        4    -0.18357    6.20939    3.68091   32.22628
     236      444        4    -0.03171    7.22061    4.35454   32.92834
     237      444        4    -0.03171    8.12886    3.63744   33.71059
     238      444        4    -0.03171    8.03178    2.24900   33.80121
     239      444        4     0.72549    6.88823   18.34915   33.18629
     240      444        4     0.72549    5.18566    4.42355   31.42683
     241      444        4    -0.18357    0.42305   16.98561   21.80828
     242      444        4    -0.03171   12.60940   16.25979   22.59602
     243      444        4    -0.18357   12.68532   14.86447   22.65936
     244      444        4    -0.03171    0.61383   14.19677   21.95089
     245      444        4    -0.03171    1.51889   14.91987   21.17175
     246      444        4    -0.03171    1.41735   16.30836   21.08626
     247      444        4     0.72549    0.32075    0.20193   21.71784
     248      444        4     0.72549   11.66809   14.11524   23.46083
     249      444        4    -0.18357   12.78673    3.68824   35.22639
     250      444        4    -0.03171    0.60803    4.46209   34.49449
     251      444        4    -0.18357    0.53432    4.51197   33.09823
     252      444        4    -0.03171   12.60246    3.80382   32.43553
     253      444        4    -0.03171   11.69073    3.03821   33.16450
     254      444        4    -0.03171   11.78780    2.96772   34.55398
     255      444        4     0.72549   12.87360    3.51889   18.40725
     256      444        4     0.72549    1.55527    5.30244   32.34326
     257      444        4    -0.18357    6.17204   14.88501   19.68872
     258      444        4    -0.03171    7.07911   14.10241   20.40818
     259      444        4    -0.18357    7.01240   14.03751   21.80370
     260      444        4    -0.03171    6.00183   14.74075   22.47885
     261      444        4    -0.03171    5.08793   15.51581   21.76251
     262      444        4    -0.03171    5.17826   15.60088   20.37175
     263      444        4     0.72549    6.32749   15.06577   36.50823
     264      444        4     0.72549    8.03745   13.23664   22.54311
     265      444        4    -0.18357    9.46936    7.84128   23.95365
     266      444        4    -0.03171   10.36905    7.11851   23.16517
     267      444        4    -0.18357   10.29657    5.72288   23.10403
     268      444        4    -0.03171    9.28627    5.05231   23.81195
     269      444        4    -0.03171    8.37872    5.77264   24.59035
     270      444        4    -0.03171    8.47655    7.16122   24.67511
     271      444        4     0.72549    9.59016    9.32765   24.04683
     272      444        4     0.72549   11.31544    4.97415   22.30531
     273      444        4    -0.18357    2.94258   10.69524   30.98344
     274      444        4    -0.03171    3.84019   11.42472   31.76696
     275      444        4    -0.18357    3.75974   12.81944   31.82902
     276      444        4    -0.03171    2.74148   13.48374   31.12696
     277      444        4    -0.03171    1.83263   12.75619   30.35606
     278      444        4    -0.03171    1.93917   11.36802   30.26984
     279      444        4     0.72549    3.08464    9.21089   30.88769
     280      444        4     0.72549    4.78115   13.56690   32.62573
     281      444        5     0.89221   12.38707    2.51932   27.95092
     282      444        5     0.89221    5.80341   16.00097   26.96419
     283      444        5     0.89221    2.56854   17.94512   29.88393
     284      444        5     0.89221    9.09979    0.59002   25.03722
     285      444        5     0.89221    4.11656    6.80716   18.78492
     286      444        5     0.89221   10.65784   11.74863   36.13276
     287      444        5     0.89221    0.81149    9.70998   20.72983
     288      444        5     0.89221    7.40501    8.83046   34.22391
     289      444        6    -0.66754    0.37830    2.42529   27.21939
     290      444        6    -0.51052   12.50285    2.76998   29.18187
     291      444        6    -0.51052   11.26133    2.36378   27.40520
     292      444        7    -0.70279    2.73076    5.15746   28.14259
     293      444        7    -0.57776    4.34911    6.70279   28.17665
     294      444        7    -0.70279    1.19054    3.25389   23.85223
     295      444        7    -0.72717    1.72890    4.32986   21.95418
     296      444        6    -0.66754    6.88448   16.06439   27.69097
     297      444        6    -0.51052    5.90804   15.76328   25.72977
     298      444        6    -0.51052    4.68457   16.17374   27.51779
     299      444        7    -0.70279    9.22825   13.37835   26.76831
     300      444        7    -0.57776   10.85142   11.83768   26.71888
     301      444        7    -0.70279    7.72040   15.28028   31.06655
     302      444        7    -0.72717    8.26354   14.20399   32.96221
     303      444        6    -0.66754    3.65810    0.14418   29.80375
     304      444        6    -0.51052    2.70608   16.70889   30.09721
     305      444        6    -0.51052    1.45920    0.14392   29.75103
     306      444        7    -0.70279    6.02830   17.75386   32.43626
     307      444        7    -0.57776    7.60779   17.71950   34.01961
     308      444        7    -0.70279    4.47548    3.79795   30.59167
     309      444        7    -0.72717    5.05806    5.69169   31.65035
     310      444        6    -0.66754   10.13912   18.11153   25.11503
     311      444        6    -0.51052    9.23489    1.82694   24.82651
     312      444        6    -0.51052    7.94017   18.32670   25.16903
     313      444        7    -0.70279   12.54899    0.78899   22.47904
     314      444        7    -0.57776    1.03433    0.83917   20.88470
     315      444        7    -0.70279   10.96484   14.73248   24.30898
     316      444        7    -0.72717   11.53930   12.84918   23.22577
     317      444        6    -0.66754    3.08611    6.97203   36.34859
     318      444        6    -0.51052    3.98727    6.60217   20.02355
     319      444        6    -0.51052    5.28603    7.02375   36.55180
     320      444        7    -0.70279    0.67132    4.25526   18.98849
     321      444        7    -0.57776   12.13119    2.71596   19.04963
     322      444        7    -0.70279    2.26508    6.14896   32.95507
     323      444        7    -0.72717    1.68054    5.06524   31.07790
     324      444        6    -0.66754    9.55295   11.56631   18.30675
     325      444        6    -0.51052   10.52504   11.98737   34.89998
     326      444        6    -0.51052   11.75220   11.51386   18.30675
     327      444        7    -0.70279    7.20768   14.33127   35.92077
     328      444        7    -0.57776    5.58457   15.87141   35.87097
     329      444        7    -0.70279    8.73849   12.39396   21.91702
     330      444        7    -0.72717    8.17275   13.46544   23.80939
     331      444        6    -0.66754   12.83123    8.96078   20.65001
     332      444        6    -0.51052    0.67552   10.94632   20.94273
     333      444        6    -0.51052    1.94651    9.17779   20.59674
     334      444        7    -0.70279   10.44305    9.92218   23.28838
     335      444        7    -0.57776    8.87123    9.95810   24.87997
     336      444        7    -0.70279   12.01762    5.58805   21.45423
     337      444        7    -0.72717   11.44680    3.70894   22.54384
     338      444        6    -0.66754    6.33385    9.56801   34.31545
     339      444        6    -0.51052    7.28027    7.59839   33.97933
     340      444        6    -0.51052    8.53387    9.36914   34.37586
     341      444        7    -0.70279    3.95458    8.63130   31.63625
     342      444        7    -0.57776    2.36739    8.57056   30.05949
     343      444        7    -0.70279    5.47208   12.94979   33.48341
     344      444        7    -0.72717    4.92697   14.82863   32.37878
     345      444        1     1.62604    2.15217   21.11351   11.12830
     346      444        1     1.62604    8.64023   33.77789    7.15611
     347      444        1     1.62604    5.41808   34.64095   11.91934
     348      444        1     1.62604   11.95743   20.25729    6.38503
     349      444        1     1.62604    1.13613   24.63947    1.98756
     350      444        1     1.62604    7.67158   30.27777   16.34243
     351      444        1     1.62604   10.91961   29.39089    2.77274
     352      444        1     1.62604    4.44481   25.49613   15.51863
     353      444        2     1.05892    3.29260   24.67706   11.95321
     354      444        2     1.05892    9.78548   30.22632    6.33468
     355      444        2     1.05892    6.54117   33.82362   15.48842
     356      444        2     1.05892   -0.01380   21.09865    2.81777
     357      444        3     0.09859    1.98959   22.62373    7.57002
     358      444        3     0.09859    3.93152   23.71514    3.88414
     359      444        3     0.09859    5.53411   25.12243    5.14401
     360      444        3     0.09859    5.33979   25.30758    7.63977
     361      444        3     0.09859    8.49919   32.26722   10.73013