Created on Tue Feb 06 14:47:55 2018 

        2592 atoms
        3312 bonds
        7632 angles
        6480 dihedrals

           6 atom types
           6 bond types
          11 angle types
           3 dihedral types
           0.000000  29.694000 xlo xhi
           0.000000  33.103217 ylo yhi
           0.000000  36.560988 zlo zhi
          -0.920031   0.018505   0.022857 xy xz yz

Masses

    1    26.981538600 # Al3
    2    30.973762000 # P_3+q
    3     1.007940000 # H_
    4    12.010700000 # C_3
    5    15.999400000 # O_3_z
    6    18.998403200 # F_

Bond Coeffs

    1      176.735686        1.800984  # Al3 F_
    2      272.871163        1.711755  # Al3 O_3_z
    3      305.050255        1.812946  # P_3+q C_3
    4      572.196304        1.563412  # P_3+q O_3_z
    5      331.069389        1.109401  # H_ C_3
    6      349.795899        1.514000  # C_3 C_3

Angle Coeffs

    1                      fourier       73.196955        0.343737        0.374972        0.281246 # O_3_z Al3 O_3_z
    2                      fourier       48.523028        0.343737        0.374972        0.281246 # O_3_z Al3 F_
    3                      fourier       32.306847        0.343737        0.374972        0.281246 # F_ Al3 F_
    4                      fourier      115.168344        0.343737        0.374972        0.281246 # O_3_z P_3+q O_3_z
    5                      fourier       64.908356        0.343737        0.374972        0.281246 # C_3 P_3+q O_3_z
    6                      fourier       59.282363        0.343737        0.374972        0.281246 # P_3+q C_3 H_
    7                      fourier       69.847816        0.343737        0.374972        0.281246 # C_3 C_3 H_
    8                      fourier       61.342703        0.343737        0.374972        0.281246 # H_ C_3 H_
    9                      fourier       86.781059        0.343737        0.374972        0.281246 # P_3+q C_3 C_3
   10                      fourier       44.943671        1.898490        2.651251        0.799497 # P_3+q O_3_z Al3
   11              cosine/periodic       14.069638               1               1 # Al3 F_ Al3

Dihedral Coeffs

    1        0.070473               1               3 # O_3_z P_3+q C_3 C_3
    2        0.136931               1               2 # O_3_z P_3+q O_3_z Al3
    3        0.066219               1               3 # H_ C_3 C_3 H_

Pair Coeffs

    1        0.505000        4.008153 # Al3 Al3
    2        0.305000        3.694557 # P_3+q P_3+q
    3        0.044000        2.571134 # H_ H_
    4        0.105000        3.430851 # C_3 C_3
    5        0.060000        3.118146 # O_3_z O_3_z
    6        0.050000        2.996983 # F_ F_

Atoms

       1      444        1     2.01273    3.58731    7.13292    3.04651
       2      444        1     2.01273    3.35726   15.40851    3.04651
       3      444        1     2.01273    8.53614    7.13292    3.04651
       4      444        1     2.01273    8.30609   15.40849    3.04651
       5      444        1     2.01273    1.13764    1.15022    9.14013
       6      444        1     2.01273    0.90759    9.42580    9.14000
       7      444        1     2.01273    6.08647    1.15022    9.14000
       8      444        1     2.01273    5.85641    9.42580    9.14013
       9      444        1     1.93658    2.01749   16.55538    6.09325
      10      444        1     1.93658    2.24745    8.27935    6.09325
      11      444        1     1.93658    6.96631   16.55538    6.09325
      12      444        1     1.93658    7.19628    8.27937    6.09325
      13      444        1     1.93658    2.47441    0.00000    0.00000
      14      444        1     1.93658    2.24437    8.27559    0.00000
      15      444        1     1.93658    7.42942    0.00762   12.18687
      16      444        1     1.93658    7.19936    8.28314   12.18663
      17      444        2     1.70002    4.72709    6.35568    5.87084
      18      444        2     1.70002    4.49702   14.63124    5.87084
      19      444        2     1.70002    9.67590    6.35566    5.87084
      20      444        2     1.70002    9.44586   14.63125    5.87084
      21      444        2     1.70002    0.00193    1.93210   11.96397
      22      444        2     1.70002   -0.22814   10.20767   11.96397
      23      444        2     1.70002    4.95074    1.93208   11.96397
      24      444        2     1.70002    4.72071   10.20769   11.96397
      25      444        2     1.70002   -0.00214    1.92744    6.31567
      26      444        2     1.70002   -0.23218   10.20305    6.31567
      27      444        2     1.70002    4.94670    1.92746    6.31567
      28      444        2     1.70002    4.71663   10.20303    6.31567
      29      444        2     1.70002    4.72303    6.35104    0.22266
      30      444        2     1.70002    4.49299   14.62663    0.22266
      31      444        2     1.70002    9.67188    6.35106    0.22266
      32      444        2     1.70002    9.44181   14.62661    0.22266
      33      444        3     0.16322    3.35647    4.49888    6.38818
      34      444        3     0.16322    3.12641   12.77445    6.38818
      35      444        3     0.16322    8.30530    4.49886    6.38818
      36      444        3     0.16322    8.07525   12.77447    6.38818
      37      444        3     0.16322    4.68510    4.67587    7.53863
      38      444        3     0.16322    4.45505   12.95146    7.53863
      39      444        3     0.16322    9.63393    4.67587    7.53863
      40      444        3     0.16322    9.40388   12.95145    7.53863
      41      444        3     0.16322    1.36511    3.78138    0.29700
      42      444        3     0.16322    1.13506   12.05696    0.29688
      43      444        3     0.16322    6.31394    3.78138    0.29688
      44      444        3     0.16322    6.08389   12.05697    0.29700
      45      444        3     0.16322    0.03501    3.60445    1.44574
      46      444        3     0.16322   -0.19504   11.88004    1.44574
      47      444        3     0.16322    4.98385    3.60445    1.44574
      48      444        3     0.16322    4.75378   11.88003    1.44574
      49      444        3     0.16322    1.36848    3.78426    5.79845
      50      444        3     0.16322    1.13842   12.05985    5.79833
      51      444        3     0.16322    6.31730    3.78426    5.79833
      52      444        3     0.16322    6.08725   12.05983    5.79845
      53      444        3     0.16322    0.03985    3.60727    4.64800
      54      444        3     0.16322   -0.19021   11.88284    4.64690
      55      444        3     0.16322    4.98867    3.60727    4.64800
      56      444        3     0.16322    4.75862   11.88286    4.64800
      57      444        3     0.16322    3.35984    4.50176   11.88963
      58      444        3     0.16322    3.12979   12.77735   11.88963
      59      444        3     0.16322    8.30867    4.50176   11.88963
      60      444        3     0.16322    8.07861   12.77733   11.88963
      61      444        3     0.16322    4.68994    4.67869   10.74077
      62      444        3     0.16322    4.45989   12.95426   10.74040
      63      444        3     0.16322    9.63877    4.67869   10.74040
      64      444        3     0.16322    9.40873   12.95428   10.74077
      65      444        4    -0.48190    4.43775    4.67792    6.46691
      66      444        4    -0.48190    4.20770   12.95349    6.46703
      67      444        4    -0.48190    9.38658    4.67792    6.46703
      68      444        4    -0.48190    9.15653   12.95349    6.46691
      69      444        4    -0.48190    0.28381    3.60191    0.37451
      70      444        4    -0.48190    0.05376   11.87749    0.37451
      71      444        4    -0.48190    5.23265    3.60190    0.37451
      72      444        4    -0.48190    5.00260   11.87749    0.37451
      73      444        4    -0.48190    0.28719    3.60522    5.71960
      74      444        4    -0.48190    0.05715   11.88081    5.71960
      75      444        4    -0.48190    5.23603    3.60522    5.71960
      76      444        4    -0.48190    5.00597   11.88079    5.71960
      77      444        4    -0.48190    4.44114    4.68123   11.81200
      78      444        4    -0.48190    4.21108   12.95682   11.81212
      79      444        4    -0.48190    9.38997    4.68124   11.81212
      80      444        4    -0.48190    9.15991   12.95682   11.81200
      81      444        5    -0.96514    3.75355    7.29636    6.58792
      82      444        5    -0.96514    3.52350   15.57193    6.58707
      83      444        5    -0.96514    8.70238    7.29636    6.58707
      84      444        5    -0.96514    8.47232   15.57193    6.58792
      85      444        5    -0.96514    1.24887    6.68543    6.14017
      86      444        5    -0.96514    1.01883   14.96101    6.14017
      87      444        5    -0.96514    6.19770    6.68544    6.14017
      88      444        5    -0.96514    5.96764   14.96101    6.14017
      89      444        5    -0.96514    4.47006    6.29541    4.31968
      90      444        5    -0.96514    4.23994   14.57093    4.31968
      91      444        5    -0.96514    9.41882    6.29534    4.31968
      92      444        5    -0.96514    9.18884   14.57100    4.31968
      93      444        5    -0.96514    0.96865    0.98329    0.49357
      94      444        5    -0.96514    0.73860    9.25890    0.49455
      95      444        5    -0.96514    5.91748    0.98331    0.49455
      96      444        5    -0.96514    5.68742    9.25888    0.49357
      97      444        5    -0.96514    3.47381    1.59372    0.04436
      98      444        5    -0.96514    3.24376    9.86930    0.04387
      99      444        5    -0.96514    8.42264    1.59373    0.04424
     100      444        5    -0.96514    8.19258    9.86931    0.04436
     101      444        5    -0.96514    0.26203    1.99557   10.41330
     102      444        5    -0.96514    0.03192   10.27107   10.41330
     103      444        5    -0.96514    5.21079    1.99550   10.41330
     104      444        5    -0.96514    4.98080   10.27114   10.41330
     105      444        5    -0.96514    0.97140    0.98678    5.59858
     106      444        5    -0.96514    0.74134    9.26235    5.59858
     107      444        5    -0.96514    5.92022    0.98678    5.59858
     108      444        5    -0.96514    5.69017    9.26237    5.59858
     109      444        5    -0.96514    3.47608    1.59772    6.04646
     110      444        5    -0.96514    3.24602    9.87329    6.04646
     111      444        5    -0.96514    8.42490    1.59770    6.04646
     112      444        5    -0.96514    8.19486    9.87329    6.04646
     113      444        5    -0.96514    0.25487    1.98770    7.86695
     114      444        5    -0.96514    0.02489   10.26336    7.86671
     115      444        5    -0.96514    5.20377    1.98777    7.86671
     116      444        5    -0.96514    4.97365   10.26329    7.86695
     117      444        5    -0.96514    3.75631    7.29983   11.69196
     118      444        5    -0.96514    3.52625   15.57540   11.69196
     119      444        5    -0.96514    8.70513    7.29983   11.69196
     120      444        5    -0.96514    8.47509   15.57542   11.69196
     121      444        5    -0.96514    1.25116    6.68943   12.14227
     122      444        5    -0.96514    1.02109   14.96500   12.14227
     123      444        5    -0.96514    6.19997    6.68941   12.14227
     124      444        5    -0.96514    5.96993   14.96500   12.14227
     125      444        5    -0.96514    4.46294    6.28759    1.77321
     126      444        5    -0.96514    4.23295   14.56325    1.77321
     127      444        5    -0.96514    9.41183    6.28766    1.77321
     128      444        5    -0.96514    9.18171   14.56316    1.77321
     129      444        6    -0.62380    2.58900    7.99328    4.22828
     130      444        6    -0.62380    2.35896   16.26887    4.22828
     131      444        6    -0.62380    7.53783    7.99330    4.22828
     132      444        6    -0.62380    7.30778   16.26887    4.22828
     133      444        6    -0.62380    2.13713    0.29111   10.32165
     134      444        6    -0.62380    1.90708    8.56670   10.32165
     135      444        6    -0.62380    7.08596    0.29111   10.32165
     136      444        6    -0.62380    6.85590    8.56670   10.32165
     137      444        6    -0.62380    2.13595    0.28986    7.95823
     138      444        6    -0.62380    1.90589    8.56543    7.95823
     139      444        6    -0.62380    7.08477    0.28984    7.95823
     140      444        6    -0.62380    6.85472    8.56543    7.95823
     141      444        6    -0.62380    2.58782    7.99203    1.86485
     142      444        6    -0.62380    2.35777   16.26761    1.86485
     143      444        6    -0.62380    7.53665    7.99202    1.86485
     144      444        6    -0.62380    7.30660   16.26761    1.86485
     145      444        1     2.01273    3.59348    7.14054   15.23350
     146      444        1     2.01273    3.36342   15.41612   15.23350
     147      444        1     2.01273    8.54231    7.14054   15.23350
     148      444        1     2.01273    8.31226   15.41611   15.23350
     149      444        1     2.01273    1.14381    1.15784   21.32712
     150      444        1     2.01273    0.91376    9.43342   21.32700
     151      444        1     2.01273    6.09263    1.15784   21.32700
     152      444        1     2.01273    5.86258    9.43342   21.32712
     153      444        1     1.93658    2.02366   16.56300   18.28025
     154      444        1     1.93658    2.25361    8.28697   18.28025
     155      444        1     1.93658    6.97248   16.56300   18.28025
     156      444        1     1.93658    7.20244    8.28698   18.28025
     157      444        1     1.93658    2.48058    0.00762   12.18700
     158      444        1     1.93658    2.25054    8.28321   12.18700
     159      444        1     1.93658    7.43559    0.01524   24.37387
     160      444        1     1.93658    7.20553    8.29076   24.37363
     161      444        2     1.70002    4.73326    6.36330   18.05784
     162      444        2     1.70002    4.50319   14.63886   18.05784
     163      444        2     1.70002    9.68207    6.36328   18.05784
     164      444        2     1.70002    9.45203   14.63887   18.05784
     165      444        2     1.70002    0.00809    1.93972   24.15097
     166      444        2     1.70002   -0.22198   10.21529   24.15097
     167      444        2     1.70002    4.95691    1.93970   24.15097
     168      444        2     1.70002    4.72688   10.21531   24.15097
     169      444        2     1.70002    0.00403    1.93506   18.50266
     170      444        2     1.70002   -0.22601   10.21067   18.50266
     171      444        2     1.70002    4.95287    1.93508   18.50266
     172      444        2     1.70002    4.72280   10.21065   18.50266
     173      444        2     1.70002    4.72920    6.35866   12.40965
     174      444        2     1.70002    4.49916   14.63425   12.40965
     175      444        2     1.70002    9.67804    6.35868   12.40965
     176      444        2     1.70002    9.44797   14.63423   12.40965
     177      444        3     0.16322    3.36264    4.50650   18.57518
     178      444        3     0.16322    3.13258   12.78207   18.57518
     179      444        3     0.16322    8.31147    4.50648   18.57518
     180      444        3     0.16322    8.08141   12.78209   18.57518
     181      444        3     0.16322    4.69127    4.68349   19.72563
     182      444        3     0.16322    4.46122   12.95908   19.72563
     183      444        3     0.16322    9.64010    4.68349   19.72563
     184      444        3     0.16322    9.41005   12.95907   19.72563
     185      444        3     0.16322    1.37128    3.78900   12.48399
     186      444        3     0.16322    1.14123   12.06458   12.48387
     187      444        3     0.16322    6.32011    3.78900   12.48387
     188      444        3     0.16322    6.09006   12.06459   12.48399
     189      444        3     0.16322    0.04118    3.61207   13.63274
     190      444        3     0.16322   -0.18887   11.88766   13.63274
     191      444        3     0.16322    4.99001    3.61207   13.63274
     192      444        3     0.16322    4.75995   11.88765   13.63274
     193      444        3     0.16322    1.37464    3.79188   17.98545
     194      444        3     0.16322    1.14459   12.06747   17.98533
     195      444        3     0.16322    6.32347    3.79188   17.98533
     196      444        3     0.16322    6.09342   12.06745   17.98545
     197      444        3     0.16322    0.04602    3.61489   16.83499
     198      444        3     0.16322   -0.18404   11.89046   16.83390
     199      444        3     0.16322    4.99484    3.61489   16.83499
     200      444        3     0.16322    4.76479   11.89047   16.83499
     201      444        3     0.16322    3.36601    4.50938   24.07663
     202      444        3     0.16322    3.13596   12.78497   24.07663
     203      444        3     0.16322    8.31484    4.50938   24.07663
     204      444        3     0.16322    8.08478   12.78495   24.07663
     205      444        3     0.16322    4.69611    4.68631   22.92776
     206      444        3     0.16322    4.46605   12.96188   22.92740
     207      444        3     0.16322    9.64494    4.68631   22.92740
     208      444        3     0.16322    9.41490   12.96190   22.92776
     209      444        4    -0.48190    4.44392    4.68554   18.65390
     210      444        4    -0.48190    4.21386   12.96111   18.65403
     211      444        4    -0.48190    9.39275    4.68554   18.65403
     212      444        4    -0.48190    9.16270   12.96111   18.65390
     213      444        4    -0.48190    0.28998    3.60953   12.56150
     214      444        4    -0.48190    0.05993   11.88511   12.56150
     215      444        4    -0.48190    5.23882    3.60952   12.56150
     216      444        4    -0.48190    5.00876   11.88511   12.56150
     217      444        4    -0.48190    0.29336    3.61284   17.90660
     218      444        4    -0.48190    0.06332   11.88843   17.90660
     219      444        4    -0.48190    5.24219    3.61284   17.90660
     220      444        4    -0.48190    5.01214   11.88841   17.90660
     221      444        4    -0.48190    4.44730    4.68885   23.99900
     222      444        4    -0.48190    4.21725   12.96444   23.99912
     223      444        4    -0.48190    9.39614    4.68886   23.99912
     224      444        4    -0.48190    9.16608   12.96444   23.99900
     225      444        5    -0.96514    3.75972    7.30398   18.77492
     226      444        5    -0.96514    3.52966   15.57955   18.77407
     227      444        5    -0.96514    8.70855    7.30398   18.77407
     228      444        5    -0.96514    8.47849   15.57955   18.77492
     229      444        5    -0.96514    1.25503    6.69304   18.32717
     230      444        5    -0.96514    1.02499   14.96863   18.32717
     231      444        5    -0.96514    6.20387    6.69306   18.32717
     232      444        5    -0.96514    5.97381   14.96863   18.32717
     233      444        5    -0.96514    4.47623    6.30303   16.50668
     234      444        5    -0.96514    4.24611   14.57855   16.50668
     235      444        5    -0.96514    9.42499    6.30296   16.50668
     236      444        5    -0.96514    9.19501   14.57862   16.50668
     237      444        5    -0.96514    0.97482    0.99091   12.68057
     238      444        5    -0.96514    0.74477    9.26652   12.68154
     239      444        5    -0.96514    5.92365    0.99093   12.68154
     240      444        5    -0.96514    5.69359    9.26650   12.68057
     241      444        5    -0.96514    3.47997    1.60133   12.23136
     242      444        5    -0.96514    3.24993    9.87692   12.23087
     243      444        5    -0.96514    8.42880    1.60135   12.23123
     244      444        5    -0.96514    8.19874    9.87692   12.23136
     245      444        5    -0.96514    0.26820    2.00319   22.60030
     246      444        5    -0.96514    0.03808   10.27869   22.60030
     247      444        5    -0.96514    5.21696    2.00312   22.60030
     248      444        5    -0.96514    4.98697   10.27876   22.60030
     249      444        5    -0.96514    0.97757    0.99440   17.78558
     250      444        5    -0.96514    0.74751    9.26997   17.78558
     251      444        5    -0.96514    5.92639    0.99440   17.78558
     252      444        5    -0.96514    5.69634    9.26999   17.78558
     253      444        5    -0.96514    3.48225    1.60534   18.23345
     254      444        5    -0.96514    3.25219    9.88091   18.23345
     255      444        5    -0.96514    8.43106    1.60532   18.23345
     256      444        5    -0.96514    8.20102    9.88091   18.23345
     257      444        5    -0.96514    0.26104    1.99532   20.05395
     258      444        5    -0.96514    0.03106   10.27098   20.05370
     259      444        5    -0.96514    5.20994    1.99539   20.05370
     260      444        5    -0.96514    4.97982   10.27091   20.05395
     261      444        5    -0.96514    3.76248    7.30745   23.87896
     262      444        5    -0.96514    3.53242   15.58302   23.87896
     263      444        5    -0.96514    8.71130    7.30745   23.87896
     264      444        5    -0.96514    8.48126   15.58304   23.87896
     265      444        5    -0.96514    1.25732    6.69704   24.32927
     266      444        5    -0.96514    1.02726   14.97262   24.32927
     267      444        5    -0.96514    6.20614    6.69703   24.32927
     268      444        5    -0.96514    5.97609   14.97262   24.32927
     269      444        5    -0.96514    4.46910    6.29521   13.96020
     270      444        5    -0.96514    4.23912   14.57087   13.96020
     271      444        5    -0.96514    9.41799    6.29528   13.96020
     272      444        5    -0.96514    9.18788   14.57078   13.96020
     273      444        6    -0.62380    2.59517    8.00090   16.41527
     274      444        6    -0.62380    2.36513   16.27649   16.41527
     275      444        6    -0.62380    7.54400    8.00092   16.41527
     276      444        6    -0.62380    7.31395   16.27649   16.41527
     277      444        6    -0.62380    2.14330    0.29873   22.50865
     278      444        6    -0.62380    1.91325    8.57432   22.50865
     279      444        6    -0.62380    7.09213    0.29873   22.50865
     280      444        6    -0.62380    6.86207    8.57432   22.50865
     281      444        6    -0.62380    2.14212    0.29748   20.14523
     282      444        6    -0.62380    1.91206    8.57305   20.14523
     283      444        6    -0.62380    7.09094    0.29746   20.14523
     284      444        6    -0.62380    6.86089    8.57305   20.14523
     285      444        6    -0.62380    2.59399    7.99965   14.05185
     286      444        6    -0.62380    2.36394   16.27523   14.05185
     287      444        6    -0.62380    7.54282    7.99964   14.05185
     288      444        6    -0.62380    7.31277   16.27523   14.05185
     289      444        1     2.01273    3.59964    7.14815   27.42050
     290      444        1     2.01273    3.36959   15.42374   27.42050
     291      444        1     2.01273    8.54848    7.14815   27.42050
     292      444        1     2.01273    8.31842   15.42373   27.42050
     293      444        1     2.01273    1.14998    1.16546   33.51412
     294      444        1     2.01273    0.91993    9.44104   33.51400
     295      444        1     2.01273    6.09880    1.16546   33.51400
     296      444        1     2.01273    5.86875    9.44104   33.51412
     297      444        1     1.93658    2.02983   16.57062   30.46725
     298      444        1     1.93658    2.25978    8.29459   30.46725
     299      444        1     1.93658    6.97865   16.57062   30.46725
     300      444        1     1.93658    7.20861    8.29460   30.46725
     301      444        1     1.93658    2.48675    0.01524   24.37399
     302      444        1     1.93658    2.25671    8.29083   24.37399
     303      444        1     1.93658    7.44176    0.02286   36.56087
     304      444        1     1.93658    7.21170    8.29838   36.56062
     305      444        2     1.70002    4.73943    6.37092   30.24483
     306      444        2     1.70002    4.50936   14.64648   30.24483
     307      444        2     1.70002    9.68824    6.37090   30.24483
     308      444        2     1.70002    9.45820   14.64649   30.24483
     309      444        2     1.70002    0.01426    1.94734   36.33797
     310      444        2     1.70002   -0.21581   10.22291   36.33797
     311      444        2     1.70002    4.96308    1.94732   36.33797
     312      444        2     1.70002    4.73304   10.22293   36.33797
     313      444        2     1.70002    0.01020    1.94268   30.68966
     314      444        2     1.70002   -0.21984   10.21829   30.68966
     315      444        2     1.70002    4.95904    1.94270   30.68966
     316      444        2     1.70002    4.72897   10.21827   30.68966
     317      444        2     1.70002    4.73537    6.36628   24.59665
     318      444        2     1.70002    4.50533   14.64187   24.59665
     319      444        2     1.70002    9.68421    6.36630   24.59665
     320      444        2     1.70002    9.45414   14.64185   24.59665
     321      444        3     0.16322    3.36881    4.51412   30.76217
     322      444        3     0.16322    3.13875   12.78969   30.76217
     323      444        3     0.16322    8.31763    4.51410   30.76217
     324      444        3     0.16322    8.08758   12.78971   30.76217
     325      444        3     0.16322    4.69744    4.69111   31.91262
     326      444        3     0.16322    4.46739   12.96670   31.91262
     327      444        3     0.16322    9.64627    4.69111   31.91262
     328      444        3     0.16322    9.41622   12.96669   31.91262
     329      444        3     0.16322    1.37745    3.79662   24.67099
     330      444        3     0.16322    1.14740   12.07219   24.67087
     331      444        3     0.16322    6.32628    3.79662   24.67087
     332      444        3     0.16322    6.09623   12.07221   24.67099
     333      444        3     0.16322    0.04735    3.61969   25.81974
     334      444        3     0.16322   -0.18270   11.89528   25.81974
     335      444        3     0.16322    4.99618    3.61969   25.81974
     336      444        3     0.16322    4.76612   11.89526   25.81974
     337      444        3     0.16322    1.38081    3.79950   30.17244
     338      444        3     0.16322    1.15076   12.07509   30.17232
     339      444        3     0.16322    6.32963    3.79950   30.17232
     340      444        3     0.16322    6.09958   12.07507   30.17244
     341      444        3     0.16322    0.05219    3.62250   29.02199
     342      444        3     0.16322   -0.17788   11.89808   29.02089
     343      444        3     0.16322    5.00101    3.62250   29.02199
     344      444        3     0.16322    4.77096   11.89809   29.02199
     345      444        3     0.16322    3.37218    4.51700   36.26363
     346      444        3     0.16322    3.14212   12.79258   36.26363
     347      444        3     0.16322    8.32101    4.51700   36.26363
     348      444        3     0.16322    8.09095   12.79257   36.26363
     349      444        3     0.16322    4.70227    4.69393   35.11476
     350      444        3     0.16322    4.47222   12.96950   35.11439
     351      444        3     0.16322    9.65111    4.69393   35.11439
     352      444        3     0.16322    9.42106   12.96951   35.11476
     353      444        4    -0.48190    4.45008    4.69316   30.84090
     354      444        4    -0.48190    4.22003   12.96873   30.84102
     355      444        4    -0.48190    9.39892    4.69316   30.84102
     356      444        4    -0.48190    9.16886   12.96873   30.84090
     357      444        4    -0.48190    0.29615    3.61715   24.74850
     358      444        4    -0.48190    0.06610   11.89272   24.74850
     359      444        4    -0.48190    5.24498    3.61714   24.74850
     360      444        4    -0.48190    5.01493   11.89272   24.74850
     361      444        4    -0.48190    0.29953    3.62046   30.09359
     362      444        4    -0.48190    0.06949   11.89605   30.09359
     363      444        4    -0.48190    5.24836    3.62046   30.09359
     364      444        4    -0.48190    5.01831   11.89603   30.09359
     365      444        4    -0.48190    4.45347    4.69647   36.18599
     366      444        4    -0.48190    4.22342   12.97205   36.18612
     367      444        4    -0.48190    9.40230    4.69648   36.18612
     368      444        4    -0.48190    9.17224   12.97205   36.18599
     369      444        5    -0.96514    3.76588    7.31160   30.96192
     370      444        5    -0.96514    3.53583   15.58717   30.96106
     371      444        5    -0.96514    8.71472    7.31160   30.96106
     372      444        5    -0.96514    8.48466   15.58717   30.96192
     373      444        5    -0.96514    1.26120    6.70066   30.51417
     374      444        5    -0.96514    1.03116   14.97625   30.51417
     375      444        5    -0.96514    6.21003    6.70068   30.51417
     376      444        5    -0.96514    5.97997   14.97625   30.51417
     377      444        5    -0.96514    4.48240    6.31064   28.69367
     378      444        5    -0.96514    4.25228   14.58617   28.69367
     379      444        5    -0.96514    9.43116    6.31058   28.69367