Created on Tue Feb 06 15:00:20 2018 

        1536 atoms
        1824 bonds
        3072 angles
        3456 dihedrals
        2016 impropers

           6 atom types
           8 bond types
          13 angle types
           4 dihedral types
           1 improper types
           0.000000  27.607999 xlo xhi
           0.000000  30.431176 ylo yhi
           0.000000  28.118227 zlo zhi
          -8.455328 -10.099868  -4.916894 xy xz yz

Masses

    1   112.411000000 # Cd3+2
    2     1.007940000 # H_
    3    12.010700000 # C_R
    4    15.999400000 # O_3
    5    15.999400000 # O_R
    6    15.999400000 # O_3_z

Bond Coeffs

    1      147.192711        2.045725  # Cd3+2 O_R
    2      184.083565        1.898765  # Cd3+2 O_3_z
    3      357.440381        1.081418  # H_ C_R
    4      391.669513        1.458000  # C_R C_R
    5      462.655054        1.379256  # C_R C_R
    6      572.510195        1.366311  # C_R O_3
    7      646.680887        1.311940  # C_R O_R
    8      769.269794        1.238182  # C_R O_3_z

Angle Coeffs

    1                      fourier       30.023701        0.343737        0.374972        0.281246 # O_R Cd3+2 O_R
    2                      fourier       36.005565        0.343737        0.374972        0.281246 # O_3_z Cd3+2 O_R
    3              cosine/periodic      125.066343              -1               3 # C_R C_R O_3
    4              cosine/periodic      101.626578              -1               3 # C_R C_R C_R
    5              cosine/periodic      144.104200              -1               3 # C_R C_R O_3
    6              cosine/periodic      137.761490              -1               3 # O_R C_R C_R
    7              cosine/periodic      217.450257              -1               3 # O_R C_R O_R
    8              cosine/periodic       76.817955              -1               3 # H_ C_R C_R
    9              cosine/periodic      117.010657              -1               3 # C_R C_R C_R
   10              cosine/periodic      182.844282              -1               3 # O_3_z C_R C_R
   11                      fourier      177.212291        0.300235        0.267331        0.266745 # C_R O_3 C_R
   12              cosine/periodic       45.673393              -1               3 # C_R O_R Cd3+2
   13                      fourier       35.204410        1.898490        2.651251        0.799497 # Cd3+2 O_3_z C_R

Dihedral Coeffs

    1        0.555556              -1               2 # C_R C_R C_R O_R
    2        1.497136              -1               2 # C_R C_R C_R C_R
    3        0.833333               1               2 # C_R C_R O_3 C_R
    4        2.245703              -1               2 # O_R C_R O_R Cd3+2

Improper Coeffs

    1        2.000000        1.000000       -1.000000        0.000000               0 # C_R C_R C_R O_3

Pair Coeffs

    1        0.228000        2.537280 # Cd3+2 Cd3+2
    2        0.044000        2.571134 # H_ H_
    3        0.105000        3.430851 # C_R C_R
    4        0.060000        3.118146 # O_3 O_3
    5        0.060000        3.118146 # O_R O_R
    6        0.060000        3.118146 # O_3_z O_3_z

Atoms

       1      444        1     1.08887    3.15298    0.09368    0.33701
       2      444        1     1.13928    1.46966   -0.72573    5.02324
       3      444        2     0.18963   -0.88712    3.27187    7.48106
       4      444        2     0.19244    0.79618    4.09131    2.79483
       5      444        2     0.19257    3.83933    2.96489    4.49785
       6      444        2     0.19526    5.45497    3.75139    0.00000
       7      444        3     0.20392   -1.65918    1.34603    7.07411
       8      444        3     0.18816    0.02413    2.16547    2.38787
       9      444        3     0.52358   -0.48971    0.84962    6.25497
      10      444        3     0.52646    1.19360    1.66905    1.56873
      11      444        3    -0.29209   -1.71543    2.58425    7.64340
      12      444        3    -0.32214   -0.03214    3.40370    2.95714
      13      444        3     0.46167   -2.84220    2.95272    8.45956
      14      444        3     0.53654   -1.15889    3.77214    3.77333
      15      444        3    -0.27313   -3.85936    1.94445    8.58908
      16      444        3    -0.30948   -2.17610    2.76393    3.90276
      17      444        3     0.17305    3.18129    0.73601    7.98590
      18      444        3     0.17472    4.86456    1.55548    3.29961
      19      444        3     0.62545    2.14858   -0.36005    8.09627
      20      444        3     0.62332    3.83189    0.45941    3.41001
      21      444        4    -0.08580   -2.64293    0.42078    7.23033
      22      444        4    -0.09780   -0.95963    1.24023    2.54407
      23      444        5    -0.57216   -0.63364   -0.30092    5.70105
      24      444        5    -0.56522    1.04969    0.51848    1.01486
      25      444        5    -0.54553    0.53407    1.56717    6.19782
      26      444        5    -0.54874    2.21735    2.38664    1.51151
      27      444        6    -0.55198   -1.30304    4.87613    4.37867
      28      444        6    -0.53856    0.26986    5.64179    0.00000
      29      444        5    -0.59612    2.05070   -1.24951    7.21101
      30      444        5    -0.58333    3.73395   -0.43003    2.52474
      31      444        5    -0.57027    1.43083   -0.24374    9.14413
      32      444        5    -0.58255    3.11415    0.57572    4.45788
      33      444        1     1.08887   -0.21364   -1.54528    9.70975
      34      444        1     1.13928   -1.89697   -2.36469   14.39598
      35      444        2     0.18963   -4.25374    1.63290   16.85380
      36      444        2     0.19244   -2.57044    2.45235   12.16757
      37      444        2     0.19257    0.47270    1.32592   13.87059
      38      444        2     0.19526    2.08835    2.11242    9.37274
      39      444        3     0.20392   -5.02580   -0.29294   16.44686
      40      444        3     0.18816   -3.34249    0.52651   11.76062
      41      444        3     0.52358   -3.85634   -0.78934   15.62771
      42      444        3     0.52646   -2.17302    0.03009   10.94147
      43      444        3    -0.29209   -5.08205    0.94529   17.01614
      44      444        3    -0.32214   -3.39876    1.76473   12.32988
      45      444        3     0.46167   -6.20882    1.31375   17.83230
      46      444        3     0.53654   -4.52551    2.13318   13.14607
      47      444        3    -0.27313   -7.22598    0.30548   17.96182
      48      444        3    -0.30948   -5.54272    1.12497   13.27551
      49      444        3     0.17305   -0.18533   -0.90295   17.35865
      50      444        3     0.17472    1.49794   -0.08349   12.67235
      51      444        3     0.62545   -1.21804   -1.99902   17.46901
      52      444        3     0.62332    0.46527   -1.17955   12.78275
      53      444        4    -0.08580   -6.00955   -1.21819   16.60307
      54      444        4    -0.09780   -4.32625   -0.39874   11.91681
      55      444        5    -0.57216   -4.00026   -1.93989   15.07379
      56      444        5    -0.56522   -2.31694   -1.12048   10.38760
      57      444        5    -0.54553   -2.83255   -0.07180   15.57056
      58      444        5    -0.54874   -1.14927    0.74768   10.88426
      59      444        6    -0.55198   -4.66966    3.23716   13.75142
      60      444        6    -0.53856   -3.09676    4.00282    9.37274
      61      444        5    -0.59612   -1.31592   -2.88848   16.58376
      62      444        5    -0.58333    0.36732   -2.06900   11.89748
      63      444        5    -0.57027   -1.93579   -1.88270   18.51687
      64      444        5    -0.58255   -0.25247   -1.06324   13.83062
      65      444        1     1.08887   -3.58026   -3.18425   19.08249
      66      444        1     1.13928   -5.26359   -4.00366   23.76872
      67      444        2     0.18963   -7.62037   -0.00606   26.22655
      68      444        2     0.19244   -5.93706    0.81338   21.54031
      69      444        2     0.19257   -2.89392   -0.31304   23.24333
      70      444        2     0.19526   -1.27828    0.47346   18.74548
      71      444        3     0.20392   -8.39242   -1.93190   25.81960
      72      444        3     0.18816   -6.70911   -1.11246   21.13336
      73      444        3     0.52358   -7.22296   -2.42831   25.00045
      74      444        3     0.52646   -5.53965   -1.60888   20.31421
      75      444        3    -0.29209   -8.44868   -0.69368   26.38888
      76      444        3    -0.32214   -6.76539    0.12577   21.70262
      77      444        3     0.46167   -9.57545   -0.32521   27.20504
      78      444        3     0.53654   -7.89214    0.49421   22.51881
      79      444        3    -0.27313  -10.59260   -1.33348   27.33456
      80      444        3    -0.30948   -8.90934   -0.51399   22.64825
      81      444        3     0.17305   -3.55195   -2.54192   26.73139
      82      444        3     0.17472   -1.86868   -1.72245   22.04509
      83      444        3     0.62545   -4.58467   -3.63798   26.84175
      84      444        3     0.62332   -2.90135   -2.81852   22.15549
      85      444        4    -0.08580   -9.37618   -2.85715   25.97582
      86      444        4    -0.09780   -7.69287   -2.03770   21.28956
      87      444        5    -0.57216   -7.36688   -3.57885   24.44653
      88      444        5    -0.56522   -5.68356   -2.75945   19.76035
      89      444        5    -0.54553   -6.19917   -1.71076   24.94330
      90      444        5    -0.54874   -4.51590   -0.89129   20.25700
      91      444        6    -0.55198   -8.03629    1.59820   23.12416
      92      444        6    -0.53856   -6.46338    2.36386   18.74548
      93      444        5    -0.59612   -4.68254   -4.52744   25.95650
      94      444        5    -0.58333   -2.99930   -3.70796   21.27022
      95      444        5    -0.57027   -5.30242   -3.52167   27.88962
      96      444        5    -0.58255   -3.61909   -2.70220   23.20337
      97      444        1     1.08887    1.03915    7.70148    0.33701
      98      444        1     1.13928   -0.64418    6.88206    5.02324
      99      444        2     0.18963   -3.00095   10.87966    7.48106
     100      444        2     0.19244   -1.31765   11.69911    2.79483
     101      444        2     0.19257    1.72550   10.57268    4.49785
     102      444        2     0.19526    3.34114   11.35918    0.00000
     103      444        3     0.20392   -3.77301    8.95382    7.07411
     104      444        3     0.18816   -2.08970    9.77327    2.38787
     105      444        3     0.52358   -2.60355    8.45742    6.25497
     106      444        3     0.52646   -0.92023    9.27684    1.56873
     107      444        3    -0.29209   -3.82926   10.19205    7.64340
     108      444        3    -0.32214   -2.14597   11.01149    2.95714
     109      444        3     0.46167   -4.95603   10.56051    8.45956
     110      444        3     0.53654   -3.27272   11.37994    3.77333
     111      444        3    -0.27313   -5.97319    9.55224    8.58908
     112      444        3    -0.30948   -4.28993   10.37173    3.90276
     113      444        3     0.17305    1.06746    8.34380    7.98590
     114      444        3     0.17472    2.75073    9.16327    3.29961
     115      444        3     0.62545    0.03475    7.24774    8.09627
     116      444        3     0.62332    1.71806    8.06721    3.41001
     117      444        4    -0.08580   -4.75676    8.02857    7.23033
     118      444        4    -0.09780   -3.07346    8.84802    2.54407
     119      444        5    -0.57216   -2.74747    7.30687    5.70105
     120      444        5    -0.56522   -1.06415    8.12628    1.01486
     121      444        5    -0.54553   -1.57976    9.17496    6.19782
     122      444        5    -0.54874    0.10352    9.99443    1.51151
     123      444        6    -0.55198   -3.41687   12.48392    4.37867
     124      444        6    -0.53856   -1.84397   13.24958    0.00000
     125      444        5    -0.59612   -0.06313    6.35828    7.21101
     126      444        5    -0.58333    1.62011    7.17776    2.52474
     127      444        5    -0.57027   -0.68300    7.36406    9.14413
     128      444        5    -0.58255    1.00032    8.18352    4.45788
     129      444        1     1.08887   -2.32747    6.06251    9.70975
     130      444        1     1.13928   -4.01080    5.24310   14.39598
     131      444        2     0.18963   -6.36758    9.24070   16.85380
     132      444        2     0.19244   -4.68427   10.06014   12.16757
     133      444        2     0.19257   -1.64113    8.93372   13.87059
     134      444        2     0.19526   -0.02549    9.72022    9.37274
     135      444        3     0.20392   -7.13963    7.31486   16.44686
     136      444        3     0.18816   -5.45632    8.13430   11.76062
     137      444        3     0.52358   -5.97017    6.81845   15.62771
     138      444        3     0.52646   -4.28685    7.63788   10.94147
     139      444        3    -0.29209   -7.19589    8.55308   17.01614
     140      444        3    -0.32214   -5.51260    9.37253   12.32988
     141      444        3     0.46167   -8.32266    8.92155   17.83230
     142      444        3     0.53654   -6.63935    9.74097   13.14607
     143      444        3    -0.27313   -9.33981    7.91328   17.96182
     144      444        3    -0.30948   -7.65655    8.73276   13.27551
     145      444        3     0.17305   -2.29916    6.70484   17.35865
     146      444        3     0.17472   -0.61589    7.52431   12.67235
     147      444        3     0.62545   -3.33187    5.60878   17.46901
     148      444        3     0.62332   -1.64856    6.42824   12.78275
     149      444        4    -0.08580   -8.12339    6.38961   16.60307
     150      444        4    -0.09780   -6.44008    7.20906   11.91681
     151      444        5    -0.57216   -6.11409    5.66791   15.07379
     152      444        5    -0.56522   -4.43077    6.48731   10.38760
     153      444        5    -0.54553   -4.94638    7.53600   15.57056
     154      444        5    -0.54874   -3.26311    8.35547   10.88426
     155      444        6    -0.55198   -6.78350   10.84496   13.75142
     156      444        6    -0.53856   -5.21059   11.61062    9.37274
     157      444        5    -0.59612   -3.42975    4.71932   16.58376
     158      444        5    -0.58333   -1.74651    5.53880   11.89748
     159      444        5    -0.57027   -4.04962    5.72509   18.51687
     160      444        5    -0.58255   -2.36630    6.54455   13.83062
     161      444        1     1.08887   -5.69409    4.42355   19.08249
     162      444        1     1.13928   -7.37742    3.60413   23.76872
     163      444        2     0.18963   -9.73420    7.60173   26.22655
     164      444        2     0.19244   -8.05089    8.42118   21.54031
     165      444        2     0.19257   -5.00775    7.29475   23.24333
     166      444        2     0.19526   -3.39211    8.08125   18.74548
     167      444        3     0.20392  -10.50625    5.67589   25.81960
     168      444        3     0.18816   -8.82294    6.49534   21.13336
     169      444        3     0.52358   -9.33679    5.17949   25.00045
     170      444        3     0.52646   -7.65348    5.99892   20.31421
     171      444        3    -0.29209  -10.56251    6.91412   26.38888
     172      444        3    -0.32214   -8.87922    7.73356   21.70262
     173      444        3     0.46167  -11.68928    7.28258   27.20504
     174      444        3     0.53654  -10.00597    8.10201   22.51881
     175      444        3    -0.27313  -12.70643    6.27431   27.33456
     176      444        3    -0.30948  -11.02317    7.09380   22.64825
     177      444        3     0.17305   -5.66579    5.06587   26.73139
     178      444        3     0.17472   -3.98252    5.88534   22.04509
     179      444        3     0.62545   -6.69850    3.96981   26.84175
     180      444        3     0.62332   -5.01519    4.78928   22.15549
     181      444        4    -0.08580  -11.49001    4.75064   25.97582
     182      444        4    -0.09780   -9.80671    5.57009   21.28956
     183      444        5    -0.57216   -9.48072    4.02894   24.44653
     184      444        5    -0.56522   -7.79739    4.84835   19.76035
     185      444        5    -0.54553   -8.31300    5.89703   24.94330
     186      444        5    -0.54874   -6.62973    6.71651   20.25700
     187      444        6    -0.55198  -10.15012    9.20599   23.12416
     188      444        6    -0.53856   -8.57722    9.97165   18.74548
     189      444        5    -0.59612   -6.79638    3.08035   25.95650
     190      444        5    -0.58333   -5.11313    3.89983   21.27022
     191      444        5    -0.57027   -7.41625    4.08613   27.88962
     192      444        5    -0.58255   -5.73292    4.90559   23.20337
     193      444        1     1.08887   -1.07468   15.30927    0.33701
     194      444        1     1.13928   -2.75801   14.48986    5.02324
     195      444        2     0.18963   -5.11479   18.48746    7.48106
     196      444        2     0.19244   -3.43148   19.30690    2.79483
     197      444        2     0.19257   -0.38834   18.18048    4.49785
     198      444        2     0.19526    1.22730   18.96698    0.00000
     199      444        3     0.20392   -5.88684   16.56162    7.07411
     200      444        3     0.18816   -4.20353   17.38106    2.38787
     201      444        3     0.52358   -4.71738   16.06521    6.25497
     202      444        3     0.52646   -3.03406   16.88464    1.56873
     203      444        3    -0.29209   -5.94309   17.79984    7.64340
     204      444        3    -0.32214   -4.25981   18.61929    2.95714
     205      444        3     0.46167   -7.06987   18.16830    8.45956
     206      444        3     0.53654   -5.38656   18.98773    3.77333
     207      444        3    -0.27313   -8.08702   17.16004    8.58908
     208      444        3    -0.30948   -6.40376   17.97952    3.90276
     209      444        3     0.17305   -1.04637   15.95160    7.98590
     210      444        3     0.17472    0.63690   16.77107    3.29961
     211      444        3     0.62545   -2.07908   14.85554    8.09627
     212      444        3     0.62332   -0.39577   15.67500    3.41001
     213      444        4    -0.08580   -6.87060   15.63637    7.23033
     214      444        4    -0.09780   -5.18729   16.45581    2.54407
     215      444        5    -0.57216   -4.86130   14.91467    5.70105
     216      444        5    -0.56522   -3.17798   15.73407    1.01486
     217      444        5    -0.54553   -3.69359   16.78276    6.19782
     218      444        5    -0.54874   -2.01032   17.60223    1.51151
     219      444        6    -0.55198   -5.53071   20.09171    4.37867
     220      444        6    -0.53856   -3.95780   20.85738    0.00000
     221      444        5    -0.59612   -2.17696   13.96608    7.21101
     222      444        5    -0.58333   -0.49372   14.78556    2.52474
     223      444        5    -0.57027   -2.79683   14.97185    9.14413
     224      444        5    -0.58255   -1.11351   15.79131    4.45788
     225      444        1     1.08887   -4.44130   13.67031    9.70975
     226      444        1     1.13928   -6.12463   12.85089   14.39598
     227      444        2     0.18963   -8.48141   16.84849   16.85380
     228      444        2     0.19244   -6.79810   17.66793   12.16757
     229      444        2     0.19257   -3.75496   16.54151   13.87059
     230      444        2     0.19526   -2.13932   17.32801    9.37274
     231      444        3     0.20392   -9.25346   14.92265   16.44686
     232      444        3     0.18816   -7.57015   15.74210   11.76062
     233      444        3     0.52358   -8.08400   14.42624   15.62771
     234      444        3     0.52646   -6.40069   15.24567   10.94147
     235      444        3    -0.29209   -9.30972   16.16087   17.01614
     236      444        3    -0.32214   -7.62643   16.98032   12.32988
     237      444        3     0.46167  -10.43649   16.52934   17.83230
     238      444        3     0.53654   -8.75318   17.34877   13.14607
     239      444        3    -0.27313  -11.45364   15.52107   17.96182
     240      444        3    -0.30948   -9.77038   16.34056   13.27551
     241      444        3     0.17305   -4.41300   14.31263   17.35865
     242      444        3     0.17472   -2.72973   15.13210   12.67235
     243      444        3     0.62545   -5.44571   13.21657   17.46901
     244      444        3     0.62332   -3.76239   14.03604   12.78275
     245      444        4    -0.08580  -10.23722   13.99740   16.60307
     246      444        4    -0.09780   -8.55392   14.81685   11.91681
     247      444        5    -0.57216   -8.22793   13.27570   15.07379
     248      444        5    -0.56522   -6.54460   14.09511   10.38760
     249      444        5    -0.54553   -7.06021   15.14379   15.57056
     250      444        5    -0.54874   -5.37694   15.96326   10.88426
     251      444        6    -0.55198   -8.89733   18.45275   13.75142
     252      444        6    -0.53856   -7.32443   19.21841    9.37274
     253      444        5    -0.59612   -5.54359   12.32711   16.58376
     254      444        5    -0.58333   -3.86034   13.14659   11.89748
     255      444        5    -0.57027   -6.16346   13.33289   18.51687
     256      444        5    -0.58255   -4.48013   14.15235   13.83062
     257      444        1     1.08887   -7.80792   12.03134   19.08249
     258      444        1     1.13928   -9.49125   11.21193   23.76872
     259      444        2     0.18963  -11.84803   15.20953   26.22655
     260      444        2     0.19244  -10.16472   16.02897   21.54031
     261      444        2     0.19257   -7.12158   14.90255   23.24333
     262      444        2     0.19526   -5.50594   15.68905   18.74548
     263      444        3     0.20392  -12.62008   13.28369   25.81960
     264      444        3     0.18816  -10.93678   14.10313   21.13336
     265      444        3     0.52358  -11.45062   12.78728   25.00045
     266      444        3     0.52646   -9.76731   13.60671   20.31421
     267      444        3    -0.29209  -12.67634   14.52191   26.38888
     268      444        3    -0.32214  -10.99305   15.34136   21.70262
     269      444        3     0.46167  -13.80311   14.89038   27.20504
     270      444        3     0.53654  -12.11980   15.70980   22.51881
     271      444        3    -0.27313  -14.82027   13.88211   27.33456
     272      444        3    -0.30948  -13.13701   14.70159   22.64825
     273      444        3     0.17305   -7.77962   12.67367   26.73139
     274      444        3     0.17472   -6.09635   13.49314   22.04509
     275      444        3     0.62545   -8.81233   11.57761   26.84175
     276      444        3     0.62332   -7.12902   12.39707   22.15549
     277      444        4    -0.08580  -13.60384   12.35844   25.97582
     278      444        4    -0.09780  -11.92054   13.17789   21.28956
     279      444        5    -0.57216  -11.59455   11.63674   24.44653
     280      444        5    -0.56522   -9.91122   12.45614   19.76035
     281      444        5    -0.54553  -10.42683   13.50483   24.94330
     282      444        5    -0.54874   -8.74356   14.32430   20.25700
     283      444        6    -0.55198  -12.26395   16.81379   23.12416
     284      444        6    -0.53856  -10.69105   17.57945   18.74548
     285      444        5    -0.59612   -8.91021   10.68815   25.95650
     286      444        5    -0.58333   -7.22696   11.50763   21.27022
     287      444        5    -0.57027   -9.53008   11.69392   27.88962
     288      444        5    -0.58255   -7.84676   12.51338   23.20337
     289      444        1     1.08887   -3.18851   22.91706    0.33701
     290      444        1     1.13928   -4.87184   22.09765    5.02324
     291      444        2     0.18963   -7.22862   26.09525    7.48106
     292      444        2     0.19244   -5.54531   26.91469    2.79483
     293      444        2     0.19257   -2.50217   25.78827    4.49785
     294      444        2     0.19526   -0.88653   26.57477    0.00000
     295      444        3     0.20392   -8.00067   24.16941    7.07411
     296      444        3     0.18816   -6.31736   24.98886    2.38787
     297      444        3     0.52358   -6.83121   23.67300    6.25497
     298      444        3     0.52646   -5.14790   24.49243    1.56873
     299      444        3    -0.29209   -8.05693   25.40763    7.64340
     300      444        3    -0.32214   -6.37364   26.22708    2.95714
     301      444        3     0.46167   -9.18370   25.77610    8.45956
     302      444        3     0.53654   -7.50039   26.59553    3.77333
     303      444        3    -0.27313  -10.20085   24.76783    8.58908
     304      444        3    -0.30948   -8.51759   25.58732    3.90276
     305      444        3     0.17305   -3.16021   23.55939    7.98590
     306      444        3     0.17472   -1.47694   24.37886    3.29961
     307      444        3     0.62545   -4.19292   22.46333    8.09627
     308      444        3     0.62332   -2.50960   23.28279    3.41001
     309      444        4    -0.08580   -8.98443   23.24416    7.23033
     310      444        4    -0.09780   -7.30113   24.06361    2.54407
     311      444        5    -0.57216   -6.97514   22.52246    5.70105
     312      444        5    -0.56522   -5.29181   23.34186    1.01486
     313      444        5    -0.54553   -5.80742   24.39055    6.19782
     314      444        5    -0.54874   -4.12415   25.21002    1.51151
     315      444        6    -0.55198   -7.64454   27.69951    4.37867
     316      444        6    -0.53856   -6.07164   28.46517    0.00000
     317      444        5    -0.59612   -4.29080   21.57387    7.21101
     318      444        5    -0.58333   -2.60755   22.39335    2.52474
     319      444        5    -0.57027   -4.91067   22.57965    9.14413
     320      444        5    -0.58255   -3.22734   23.39911    4.45788
     321      444        1     1.08887   -6.55513   21.27810    9.70975
     322      444        1     1.13928   -8.23846   20.45869   14.39598
     323      444        2     0.18963  -10.59524   24.45629   16.85380
     324      444        2     0.19244   -8.91193   25.27573   12.16757
     325      444        2     0.19257   -5.86879   24.14930   13.87059
     326      444        2     0.19526   -4.25315   24.93581    9.37274
     327      444        3     0.20392  -11.36729   22.53045   16.44686
     328      444        3     0.18816   -9.68398   23.34989   11.76062
     329      444        3     0.52358  -10.19783   22.03404   15.62771
     330      444        3     0.52646   -8.51452   22.85347   10.94147
     331      444        3    -0.29209  -11.42355   23.76867   17.01614
     332      444        3    -0.32214   -9.74026   24.58812   12.32988
     333      444        3     0.46167  -12.55032   24.13713   17.83230
     334      444        3     0.53654  -10.86701   24.95656   13.14607
     335      444        3    -0.27313  -13.56747   23.12886   17.96182
     336      444        3    -0.30948  -11.88422   23.94835   13.27551
     337      444        3     0.17305   -6.52683   21.92043   17.35865
     338      444        3     0.17472   -4.84356   22.73990   12.67235
     339      444        3     0.62545   -7.55954   20.82437   17.46901
     340      444        3     0.62332   -5.87623   21.64383   12.78275
     341      444        4    -0.08580  -12.35105   21.60520   16.60307
     342      444        4    -0.09780  -10.66775   22.42464   11.91681
     343      444        5    -0.57216  -10.34176   20.88350   15.07379
     344      444        5    -0.56522   -8.65843   21.70290   10.38760
     345      444        5    -0.54553   -9.17404   22.75159   15.57056
     346      444        5    -0.54874   -7.49077   23.57106   10.88426
     347      444        6    -0.55198  -11.01116   26.06054   13.75142
     348      444        6    -0.53856   -9.43826   26.82621    9.37274
     349      444        5    -0.59612   -7.65742   19.93491   16.58376
     350      444        5    -0.58333   -5.97417   20.75439   11.89748
     351      444        5    -0.57027   -8.27729   20.94068   18.51687
     352      444        5    -0.58255   -6.59397   21.76014   13.83062
     353      444        1     1.08887   -9.92176   19.63913   19.08249
     354      444        1     1.13928  -11.60509   18.81972   23.76872
     355      444        2     0.18963  -13.96186   22.81732   26.22655
     356      444        2     0.19244  -12.27856   23.63676   21.54031
     357      444        2     0.19257   -9.23541   22.51034   23.24333
     358      444        2     0.19526   -7.61977   23.29684   18.74548
     359      444        3     0.20392  -14.73392   20.89148   25.81960
     360      444        3     0.18816  -13.05061   21.71093   21.13336
     361      444        3     0.52358  -13.56446   20.39507   25.00045
     362      444        3     0.52646  -11.88114   21.21450   20.31421
     363      444        3    -0.29209  -14.79017   22.12970   26.38888
     364      444        3    -0.32214  -13.10688   22.94915   21.70262
     365      444        3     0.46167  -15.91694   22.49817   27.20504
     366      444        3     0.53654  -14.23363   23.31760   22.51881
     367      444        3    -0.27313  -16.93410   21.48990   27.33456
     368      444        3    -0.30948  -15.25084   22.30939   22.64825
     369      444        3     0.17305   -9.89345   20.28146   26.73139
     370      444        3     0.17472   -8.21018   21.10093   22.04509
     371      444        3     0.62545  -10.92616   19.18540   26.84175
     372      444        3     0.62332   -9.24285   20.00486   22.15549
     373      444        4    -0.08580  -15.71767   19.96623   25.97582