Created on Tue Feb 06 14:46:48 2018 

        2304 atoms
        3072 bonds
        6144 angles
        4608 dihedrals

           3 atom types
           2 bond types
           3 angle types
           1 dihedral types
           0.000000  39.594000 xlo xhi
           0.000000  39.259681 ylo yhi
           0.000000  28.732001 zlo zhi
           5.180486   8.414675   7.384053 xy xz yz

Masses

    1    26.981538600 # Al3
    2    30.973762000 # P_3+5
    3    15.999400000 # O_3_z

Bond Coeffs

    1      272.871163        1.711755  # Al3 O_3_z
    2      572.196304        1.563412  # P_3+5 O_3_z

Angle Coeffs

    1       73.196955        0.343737        0.374972        0.281246 # O_3_z Al3 O_3_z
    2      115.168344        0.343737        0.374972        0.281246 # O_3_z P_3+5 O_3_z
    3       44.943671        1.898490        2.651251        0.799497 # Al3 O_3_z P_3+5

Dihedral Coeffs

    1        0.136931               1               2 # O_3_z P_3+5 O_3_z Al3

Pair Coeffs

    1        0.505000        4.008153 # Al3 Al3
    2        0.305000        3.694557 # P_3+5 P_3+5
    3        0.060000        3.118146 # O_3_z O_3_z

Atoms

       1      444        1     1.96086   10.21037    3.58085    1.80595
       2      444        1     1.96086   11.50552   13.39567    1.80595
       3      444        1     1.96086   20.10893    3.58085    1.80595
       4      444        1     1.96086   21.40408   13.39567    1.80595
       5      444        1     1.96086    7.75441    8.94556    1.16911
       6      444        1     1.96086    9.04955   18.76038    1.16911
       7      444        1     1.96086   17.65297    8.94556    1.16911
       8      444        1     1.96086   18.94811   18.76038    1.16911
       9      444        1     1.96086    2.07586    8.50670    2.39912
      10      444        1     1.96086    3.37101   18.32153    2.39912
      11      444        1     1.96086   11.97442    8.50670    2.39912
      12      444        1     1.96086   13.26959   18.32153    2.39912
      13      444        1     1.96086    8.41216    2.00467    5.37662
      14      444        1     1.96086    9.70733   11.81949    5.37662
      15      444        1     1.96086   18.31072    2.00467    5.37662
      16      444        1     1.96086   19.60589   11.81949    5.37662
      17      444        1     1.96086    3.41548    5.14220    6.01332
      18      444        1     1.96086    4.71065   14.95703    6.01332
      19      444        1     1.96086   13.31406    5.14220    6.01332
      20      444        1     1.96086   14.60921   14.95703    6.01332
      21      444        1     1.96086    4.59382   10.71475    4.78445
      22      444        1     1.96086    5.88898   20.52957    4.78445
      23      444        1     1.96086   14.49240   10.71475    4.78445
      24      444        1     1.96086   15.78754   20.52957    4.78445
      25      444        1     1.96086    5.19080    9.92605   12.56019
      26      444        1     1.96086    6.48596   19.74087   12.56019
      27      444        1     1.96086   15.08936    9.92605   12.56019
      28      444        1     1.96086   16.38452   19.74087   12.56019
      29      444        1     1.96086    7.64676    4.56135   13.19704
      30      444        1     1.96086    8.94193   14.37617   13.19704
      31      444        1     1.96086   17.54532    4.56135   13.19704
      32      444        1     1.96086   18.84049   14.37617   13.19704
      33      444        1     1.96086   13.32531    5.00020   11.96702
      34      444        1     1.96086   14.62046   14.81502   11.96702
      35      444        1     1.96086   23.22387    5.00020   11.96702
      36      444        1     1.96086   24.51902   14.81502   11.96702
      37      444        1     1.96086    6.98896   11.50220    8.98938
      38      444        1     1.96086    8.28411   21.31702    8.98938
      39      444        1     1.96086   16.88752   11.50220    8.98938
      40      444        1     1.96086   18.18267   21.31702    8.98938
      41      444        1     1.96086   11.98554    8.36459    8.35239
      42      444        1     1.96086   13.28071   18.17941    8.35239
      43      444        1     1.96086   21.88410    8.36459    8.35239
      44      444        1     1.96086   23.17927   18.17941    8.35239
      45      444        1     1.96086   10.80729    2.79210    9.58155
      46      444        1     1.96086   12.10246   12.60692    9.58155
      47      444        1     1.96086   20.70585    2.79210    9.58155
      48      444        1     1.96086   22.00102   12.60692    9.58155
      49      444        2     2.10446    9.84099    6.61533    1.13491
      50      444        2     2.10446   11.13616   16.43015    1.13491
      51      444        2     2.10446   19.73955    6.61533    1.13491
      52      444        2     2.10446   21.03472   16.43015    1.13491
      53      444        2     2.10446    4.86159    9.65904    1.80595
      54      444        2     2.10446    6.15675   19.47386    1.80595
      55      444        2     2.10446   14.76017    9.65904    1.80595
      56      444        2     2.10446   16.05531   19.47386    1.80595
      57      444        2     2.10446    8.57117    1.03474    2.42714
      58      444        2     2.10446    9.86632   10.84956    2.42714
      59      444        2     2.10446   18.46973    1.03474    2.42714
      60      444        2     2.10446   19.76488   10.84956    2.42714
      61      444        2     2.10446    5.45194    2.76844    6.04880
      62      444        2     2.10446    6.74709   12.58326    6.04880
      63      444        2     2.10446   15.35050    2.76844    6.04880
      64      444        2     2.10446   16.64565   12.58326    6.04880
      65      444        2     2.10446    3.08687    8.10378    5.37763
      66      444        2     2.10446    4.38202   17.91861    5.37763
      67      444        2     2.10446   12.98543    8.10378    5.37763
      68      444        2     2.10446   14.28058   17.91861    5.37763
      69      444        2     2.10446   11.15080    3.29662    4.75529
      70      444        2     2.10446   12.44597   13.11144    4.75529
      71      444        2     2.10446   21.04936    3.29662    4.75529
      72      444        2     2.10446   22.34453   13.11144    4.75529
      73      444        2     2.10446    5.56016    6.89158   13.23123
      74      444        2     2.10446    6.85533   16.70638   13.23123
      75      444        2     2.10446   15.45874    6.89158   13.23123
      76      444        2     2.10446   16.75389   16.70638   13.23123
      77      444        2     2.10446   10.53956    3.84787   12.56019
      78      444        2     2.10446   11.83473   13.66269   12.56019
      79      444        2     2.10446   20.43812    3.84787   12.56019
      80      444        2     2.10446   21.73329   13.66269   12.56019
      81      444        2     2.10446    6.82999   12.47217   11.93901
      82      444        2     2.10446    8.12516   22.28699   11.93901
      83      444        2     2.10446   16.72855   12.47217   11.93901
      84      444        2     2.10446   18.02370   22.28699   11.93901
      85      444        2     2.10446    9.94923   10.73847    8.31734
      86      444        2     2.10446   11.24439   20.55329    8.31734
      87      444        2     2.10446   19.84779   10.73847    8.31734
      88      444        2     2.10446   21.14295   20.55329    8.31734
      89      444        2     2.10446   12.31426    5.40306    8.98838
      90      444        2     2.10446   13.60942   15.21789    8.98838
      91      444        2     2.10446   22.21282    5.40308    8.98838
      92      444        2     2.10446   23.50796   15.21789    8.98838
      93      444        2     2.10446    4.25033   10.21025    9.61071
      94      444        2     2.10446    5.54548   20.02507    9.61071
      95      444        2     2.10446   14.14889   10.21025    9.61071
      96      444        2     2.10446   15.44404   20.02507    9.61071
      97      444        3    -1.01633    3.67934    8.67084    1.69720
      98      444        3    -1.01633    4.97451   18.48566    1.69720
      99      444        3    -1.01633   13.57790    8.67084    1.69720
     100      444        3    -1.01633   14.87307   18.48566    1.69720
     101      444        3    -1.01633    9.54673    5.19697    1.64821
     102      444        3    -1.01633   10.84190   15.01180    1.64821
     103      444        3    -1.01633   19.44529    5.19697    1.64821
     104      444        3    -1.01633   20.74046   15.01180    1.64821
     105      444        3    -1.01633    7.26459    0.57565    1.76300
     106      444        3    -1.01633    8.55974   10.39050    1.76300
     107      444        3    -1.01633   17.16315    0.57567    1.76300
     108      444        3    -1.01633   18.45829   10.39048    1.76300
     109      444        3    -1.01633    4.69654   10.56536    3.04085
     110      444        3    -1.01633    5.99140   20.37992    3.03985
     111      444        3    -1.01633   14.59481   10.56510    3.03985
     112      444        3    -1.01633   15.88996   20.37992    3.03985
     113      444        3    -1.01633    8.84654    2.48003    1.96972
     114      444        3    -1.01633   10.14170   12.29486    1.96972
     115      444        3    -1.01633   18.74509    2.48003    1.96972
     116      444        3    -1.01633   20.04026   12.29486    1.96972
     117      444        3    -1.01633   11.19449    7.09136    1.71501
     118      444        3    -1.01633   12.48964   16.90619    1.71501
     119      444        3    -1.01633   21.09271    7.09107    1.71386
     120      444        3    -1.01633   22.38820   16.90619    1.71501
     121      444        3    -1.01633    9.71309   10.77732    3.96171
     122      444        3    -1.01633   11.00825   20.59214    3.96171
     123      444        3    -1.01633   19.61165   10.77732    3.96171
     124      444        3    -1.01633   20.90681   20.59214    3.96171
     125      444        3    -1.01633    6.16378    8.83508    1.91168
     126      444        3    -1.01633    7.45894   18.64990    1.91168
     127      444        3    -1.01633   16.06233    8.83508    1.91168
     128      444        3    -1.01633   17.35750   18.64990    1.91168
     129      444        3    -1.01633    3.61706    0.76528    0.57320
     130      444        3    -1.01633    4.91221   10.58010    0.57320
     131      444        3    -1.01633   13.51562    0.76528    0.57320
     132      444        3    -1.01633   14.81077   10.58010    0.57320
     133      444        3    -1.01633   11.04360    9.94570    1.98969
     134      444        3    -1.01633   12.33877   19.76052    1.98969
     135      444        3    -1.01633   20.94216    9.94570    1.98969
     136      444        3    -1.01633   22.23733   19.76052    1.98969
     137      444        3    -1.01633    8.69646    7.53127    1.60382
     138      444        3    -1.01633    9.99163   17.34610    1.60382
     139      444        3    -1.01633   18.59502    7.53127    1.60382
     140      444        3    -1.01633   19.89019   17.34610    1.60382
     141      444        3    -1.01633   14.10931   10.32359   13.96016
     142      444        3    -1.01633   15.40445   20.13839   13.96016
     143      444        3    -1.01633   24.00786   10.32357   13.96016
     144      444        3    -1.01633   25.30303   20.13841   13.96016
     145      444        3    -1.01633    4.22128    9.14656    5.48638
     146      444        3    -1.01633    5.51642   18.96138    5.48638
     147      444        3    -1.01633   14.11983    9.14656    5.48638
     148      444        3    -1.01633   15.41498   18.96138    5.48638
     149      444        3    -1.01633    6.89706    2.87418    5.53666
     150      444        3    -1.01633    8.19223   12.68900    5.53666
     151      444        3    -1.01633   16.79564    2.87418    5.53666
     152      444        3    -1.01633   18.09078   12.68900    5.53666
     153      444        3    -1.01633   11.77637    4.53237    5.41886
     154      444        3    -1.01633   13.07152   14.34717    5.41886
     155      444        3    -1.01633   21.67493    4.53235    5.41886
     156      444        3    -1.01633   22.97010   14.34719    5.41886
     157      444        3    -1.01633    2.20972    8.38634    4.14301
     158      444        3    -1.01633    3.50489   18.20116    4.14301
     159      444        3    -1.01633   12.10828    8.38634    4.14301
     160      444        3    -1.01633   13.40345   18.20116    4.14301
     161      444        3    -1.01633    9.68168    3.21290    5.21213
     162      444        3    -1.01633   10.97683   13.02772    5.21213
     163      444        3    -1.01633   19.58024    3.21290    5.21213
     164      444        3    -1.01633   20.87538   13.02772    5.21213
     165      444        3    -1.01633    4.80368    1.48851    5.46885
     166      444        3    -1.01633    6.09883   11.30334    5.46885
     167      444        3    -1.01633   14.70222    1.48851    5.46885
     168      444        3    -1.01633   15.99739   11.30334    5.46885
     169      444        3    -1.01633    1.34422    3.43752    3.21942
     170      444        3    -1.01633    2.63937   13.25235    3.21942
     171      444        3    -1.01633   11.24278    3.43750    3.21942
     172      444        3    -1.01633   12.53793   13.25235    3.21942
     173      444        3    -1.01633    3.73318    6.70499    5.27132
     174      444        3    -1.01633    5.02835   16.51981    5.27132
     175      444        3    -1.01633   13.63174    6.70499    5.27132
     176      444        3    -1.01633   14.92691   16.51981    5.27132
     177      444        3    -1.01633   12.06590    8.17420    6.61052
     178      444        3    -1.01633   13.36105   17.98900    6.61052
     179      444        3    -1.01633   21.96446    8.17418    6.61052
     180      444        3    -1.01633   23.25963   17.98900    6.61052
     181      444        3    -1.01633    1.99410    2.01138    5.19374
     182      444        3    -1.01633    3.28927   11.82620    5.19374
     183      444        3    -1.01633   11.89266    2.01138    5.19374
     184      444        3    -1.01633   13.18783   11.82620    5.19374
     185      444        3    -1.01633    4.69400    4.02279    5.57832
     186      444        3    -1.01633    5.98917   13.83761    5.57832
     187      444        3    -1.01633   14.59258    4.02279    5.57832
     188      444        3    -1.01633   15.88773   13.83761    5.57832
     189      444        3    -1.01633    5.42623    2.71137    7.58985
     190      444        3    -1.01633    6.72138   12.52621    7.58985
     191      444        3    -1.01633   15.32479    2.71137    7.58985
     192      444        3    -1.01633   16.61994   12.52619    7.58985
     193      444        3    -1.01633   11.72178    4.83603   12.66880
     194      444        3    -1.01633   13.01693   14.65086   12.66880
     195      444        3    -1.01633   21.62034    4.83603   12.66880
     196      444        3    -1.01633   22.91549   14.65086   12.66880
     197      444        3    -1.01633    5.85441    8.30991   12.71793
     198      444        3    -1.01633    7.14958   18.12473   12.71793
     199      444        3    -1.01633   15.75299    8.30991   12.71793
     200      444        3    -1.01633   17.04814   18.12473   12.71793
     201      444        3    -1.01633    8.13620   12.93090   12.60186
     202      444        3    -1.01633    9.43171   22.74602   12.60301
     203      444        3    -1.01633   18.03510   12.93119   12.60301
     204      444        3    -1.01633   19.32991   22.74572   12.60186
     205      444        3    -1.01633   10.70463    2.94155   11.32529
     206      444        3    -1.01633   11.99979   12.75637   11.32529
     207      444        3    -1.01633   20.60319    2.94155   11.32529
     208      444        3    -1.01633   21.89835   12.75637   11.32529
     209      444        3    -1.01633    6.55083   11.02355   12.38349
     210      444        3    -1.01633    7.84600   20.83837   12.38349
     211      444        3    -1.01633   16.44941   11.02355   12.38349
     212      444        3    -1.01633   17.74455   20.83837   12.38349
     213      444        3    -1.01633    4.20668    6.41554   12.65113
     214      444        3    -1.01633    5.50185   16.23036   12.65113
     215      444        3    -1.01633   14.10524    6.41554   12.65113
     216      444        3    -1.01633   15.40039   16.23036   12.65113
     217      444        3    -1.01633    5.68808    2.72958   10.40443
     218      444        3    -1.01633    6.98323   12.54441   10.40443
     219      444        3    -1.01633   15.58664    2.72958   10.40443
     220      444        3    -1.01633   16.88179   12.54441   10.40443
     221      444        3    -1.01633    9.23739    4.67183   12.45446
     222      444        3    -1.01633   10.53254   14.48665   12.45446
     223      444        3    -1.01633   19.13595    4.67183   12.45446
     224      444        3    -1.01633   20.43110   14.48665   12.45446
     225      444        3    -1.01633   11.78410   12.74161   13.79294
     226      444        3    -1.01633   13.07927   22.55645   13.79294
     227      444        3    -1.01633   21.68266   12.74163   13.79294
     228      444        3    -1.01633   22.97783   22.55643   13.79294
     229      444        3    -1.01633    4.35753    3.56117   12.37631
     230      444        3    -1.01633    5.65268   13.37599   12.37631
     231      444        3    -1.01633   14.25609    3.56117   12.37631
     232      444        3    -1.01633   15.55123   13.37599   12.37631
     233      444        3    -1.01633    6.70471    5.97563   12.76232
     234      444        3    -1.01633    7.99986   15.79043   12.76232
     235      444        3    -1.01633   16.60327    5.97563   12.76232
     236      444        3    -1.01633   17.89842   15.79045   12.76232
     237      444        3    -1.01633    1.29187    3.18334    0.40598
     238      444        3    -1.01633    2.58701   12.99814    0.40598
     239      444        3    -1.01633   11.19042    3.18332    0.40598
     240      444        3    -1.01633   12.48559   12.99816    0.40598
     241      444        3    -1.01633   11.17989    4.36035    8.87977
     242      444        3    -1.01633   12.47506   14.17515    8.87977
     243      444        3    -1.01633   21.07845    4.36035    8.87977
     244      444        3    -1.01633   22.37360   14.17517    8.87977
     245      444        3    -1.01633    8.50409   10.63272    8.82949
     246      444        3    -1.01633    9.79922   20.44751    8.82934
     247      444        3    -1.01633   18.40261   10.63267    8.82934
     248      444        3    -1.01633   19.69782   20.44755    8.82949
     249      444        3    -1.01633    3.62475    8.97452    8.94715
     250      444        3    -1.01633    4.91990   18.78932    8.94715
     251      444        3    -1.01633   13.52331    8.97450    8.94715
     252      444        3    -1.01633   14.81848   18.78934    8.94715
     253      444        3    -1.01633   13.19145    5.12055   10.22313
     254      444        3    -1.01633   14.48660   14.93539   10.22313
     255      444        3    -1.01633   23.09001    5.12055   10.22313
     256      444        3    -1.01633   24.38515   14.93537   10.22313
     257      444        3    -1.01633    5.71949   10.29401    9.15402
     258      444        3    -1.01633    7.01466   20.10883    9.15402
     259      444        3    -1.01633   15.61805   10.29401    9.15402
     260      444        3    -1.01633   16.91322   20.10883    9.15402
     261      444        3    -1.01633   10.59744   12.01835    8.89715
     262      444        3    -1.01633   11.89253   21.83310    8.89686
     263      444        3    -1.01633   20.49592   12.01828    8.89686
     264      444        3    -1.01633   21.79117   21.83318    8.89715
     265      444        3    -1.01633   14.05657   10.06905   11.14543
     266      444        3    -1.01633   15.35174   19.88387   11.14543
     267      444        3    -1.01633   23.95513   10.06905   11.14543
     268      444        3    -1.01633   25.25030   19.88387   11.14543
     269      444        3    -1.01633   11.66763    6.80162    9.09368
     270      444        3    -1.01633   12.96280   16.61645    9.09368
     271      444        3    -1.01633   21.56621    6.80162    9.09368
     272      444        3    -1.01633   22.86136   16.61645    9.09368
     273      444        3    -1.01633    3.33527    5.33270    7.75563
     274      444        3    -1.01633    4.63042   15.14753    7.75563
     275      444        3    -1.01633   13.23383    5.33270    7.75563
     276      444        3    -1.01633   14.52899   15.14753    7.75563
     277      444        3    -1.01633   13.40706   11.49551    9.17240
     278      444        3    -1.01633   14.70221   21.31035    9.17240
     279      444        3    -1.01633   23.30562   11.49553    9.17240
     280      444        3    -1.01633   24.60077   21.31033    9.17240
     281      444        3    -1.01633   10.70702    9.48400    8.78740
     282      444        3    -1.01633   12.00219   19.29883    8.78740
     283      444        3    -1.01633   20.60558    9.48400    8.78740
     284      444        3    -1.01633   21.90075   19.29883    8.78740
     285      444        3    -1.01633    9.97494   10.79554    6.77630
     286      444        3    -1.01633   11.27010   20.61036    6.77630
     287      444        3    -1.01633   19.87350   10.79554    6.77630
     288      444        3    -1.01633   21.16866   20.61034    6.77630
     289      444        1     1.96086   14.41771    7.27288   16.17195
     290      444        1     1.96086   15.71286   17.08770   16.17195
     291      444        1     1.96086   24.31627    7.27288   16.17195
     292      444        1     1.96086   25.61142   17.08770   16.17195
     293      444        1     1.96086   11.96174   12.63758   15.53511
     294      444        1     1.96086   13.25689   22.45241   15.53511
     295      444        1     1.96086   21.86030   12.63758   15.53511
     296      444        1     1.96086   23.15545   22.45241   15.53511
     297      444        1     1.96086    6.28320   12.19873   16.76512
     298      444        1     1.96086    7.57834   22.01355   16.76512
     299      444        1     1.96086   16.18175   12.19873   16.76512
     300      444        1     1.96086   17.47692   22.01355   16.76512
     301      444        1     1.96086   12.61950    5.69670   19.74262
     302      444        1     1.96086   13.91467   15.51152   19.74262
     303      444        1     1.96086   22.51806    5.69670   19.74262
     304      444        1     1.96086   23.81323   15.51152   19.74262
     305      444        1     1.96086    7.62282    8.83423   20.37932
     306      444        1     1.96086    8.91799   18.64905   20.37932
     307      444        1     1.96086   17.52140    8.83423   20.37932
     308      444        1     1.96086   18.81655   18.64905   20.37932
     309      444        1     1.96086    8.80115   14.40678   19.15045
     310      444        1     1.96086   10.09632   24.22160   19.15045
     311      444        1     1.96086   18.69973   14.40678   19.15045
     312      444        1     1.96086   19.99488   24.22160   19.15045
     313      444        1     1.96086    9.39813   13.61808   26.92620
     314      444        1     1.96086   10.69330   23.43290   26.92620
     315      444        1     1.96086   19.29669   13.61808   26.92620
     316      444        1     1.96086   20.59186   23.43290   26.92620
     317      444        1     1.96086   11.85410    8.25337   27.56304
     318      444        1     1.96086   13.14927   18.06820   27.56304
     319      444        1     1.96086   21.75266    8.25337   27.56304
     320      444        1     1.96086   23.04783   18.06820   27.56304
     321      444        1     1.96086   17.53265    8.69223   26.33302
     322      444        1     1.96086   18.82780   18.50705   26.33302
     323      444        1     1.96086   27.43121    8.69223   26.33302
     324      444        1     1.96086   28.72636   18.50705   26.33302
     325      444        1     1.96086   11.19630   15.19422   23.35538
     326      444        1     1.96086   12.49145   25.00904   23.35538
     327      444        1     1.96086   21.09486   15.19422   23.35538
     328      444        1     1.96086   22.39001   25.00904   23.35538
     329      444        1     1.96086   16.19288   12.05662   22.71839
     330      444        1     1.96086   17.48805   21.87144   22.71839
     331      444        1     1.96086   26.09144   12.05662   22.71839
     332      444        1     1.96086   27.38660   21.87144   22.71839
     333      444        1     1.96086   15.01463    6.48412   23.94755
     334      444        1     1.96086   16.30979   16.29895   23.94755
     335      444        1     1.96086   24.91318    6.48412   23.94755
     336      444        1     1.96086   26.20835   16.29895   23.94755
     337      444        2     2.10446   14.04833   10.30735   15.50091
     338      444        2     2.10446   15.34349   20.12217   15.50091
     339      444        2     2.10446   23.94688   10.30735   15.50091
     340      444        2     2.10446   25.24205   20.12217   15.50091
     341      444        2     2.10446    9.06892   13.35106   16.17195
     342      444        2     2.10446   10.36409   23.16588   16.17195
     343      444        2     2.10446   18.96750   13.35106   16.17195
     344      444        2     2.10446   20.26265   23.16588   16.17195
     345      444        2     2.10446   12.77851    4.72676   16.79314
     346      444        2     2.10446   14.07366   14.54159   16.79314
     347      444        2     2.10446   22.67707    4.72676   16.79314
     348      444        2     2.10446   23.97222   14.54159   16.79314
     349      444        2     2.10446    9.65928    6.46046   20.41481
     350      444        2     2.10446   10.95443   16.27529   20.41481
     351      444        2     2.10446   19.55784    6.46046   20.41481
     352      444        2     2.10446   20.85299   16.27529   20.41481
     353      444        2     2.10446    7.29421   11.79581   19.74363
     354      444        2     2.10446    8.58935   21.61063   19.74363
     355      444        2     2.10446   17.19276   11.79581   19.74363
     356      444        2     2.10446   18.48791   21.61063   19.74363
     357      444        2     2.10446   15.35814    6.98864   19.12129
     358      444        2     2.10446   16.65330   16.80347   19.12129
     359      444        2     2.10446   25.25670    6.98864   19.12129
     360      444        2     2.10446   26.55186   16.80347   19.12129
     361      444        2     2.10446    9.76750   10.58361   27.59723
     362      444        2     2.10446   11.06266   20.39841   27.59723
     363      444        2     2.10446   19.66608   10.58361   27.59723
     364      444        2     2.10446   20.96122   20.39841   27.59723
     365      444        2     2.10446   14.74690    7.53989   26.92620
     366      444        2     2.10446   16.04207   17.35472   26.92620
     367      444        2     2.10446   24.64546    7.53989   26.92620
     368      444        2     2.10446   25.94063   17.35472   26.92620
     369      444        2     2.10446   11.03733   16.16419   26.30501
     370      444        2     2.10446   12.33250   25.97902   26.30501
     371      444        2     2.10446   20.93589   16.16419   26.30501
     372      444        2     2.10446   22.23104   25.97902   26.30501
     373      444        2     2.10446   14.15656   14.43049   22.68334
     374      444        2     2.10446   15.45173   24.24532   22.68334
     375      444        2     2.10446   24.05512   14.43049   22.68334
     376      444        2     2.10446   25.35029   24.24532   22.68334
     377      444        2     2.10446   16.52159    9.09509   23.35438
     378      444        2     2.10446   17.81676   18.90991   23.35438
     379      444        2     2.10446   26.42016    9.09511   23.35438
     380      444        2     2.10446   27.71530   18.90991   23.35438
     381      444        2     2.10446    8.45766   13.90228   23.97671
     382      444        2     2.10446    9.75281   23.71710   23.97671
     383      444        2     2.10446   18.35622   13.90228   23.97671
     384      444        2     2.10446   19.65137   23.71710   23.97671
     385      444        3    -1.01633    7.88668   12.36286   16.06320
     386      444        3    -1.01633    9.18185   22.17768   16.06320
     387      444        3    -1.01633   17.78524   12.36286   16.06320
     388      444        3    -1.01633   19.08041   22.17768   16.06320
     389      444        3    -1.01633   13.75407    8.88900   16.01421
     390      444        3    -1.01633   15.04924   18.70382   16.01421
     391      444        3    -1.01633   23.65263    8.88900   16.01421
     392      444        3    -1.01633   24.94780   18.70382   16.01421
     393      444        3    -1.01633   11.47192    4.26768   16.12900
     394      444        3    -1.01633   12.76707   14.08252   16.12900
     395      444        3    -1.01633   21.37049    4.26770   16.12900
     396      444        3    -1.01633   22.66563   14.08250   16.12900
     397      444        3    -1.01633    8.90388   14.25738   17.40685
     398      444        3    -1.01633   10.19873   24.07195   17.40585
     399      444        3    -1.01633   18.80214   14.25713   17.40585
     400      444        3    -1.01633   20.09729   24.07195   17.40585