Created on Tue Feb 06 14:09:12 2018 

        3264 atoms
        3584 bonds
        6080 angles
        8192 dihedrals
        4800 impropers

           6 atom types
          11 bond types
          22 angle types
           5 dihedral types
           1 improper types
           0.000000  46.884000 xlo xhi
           0.000000  42.079889 ylo yhi
           0.000000  25.356024 zlo zhi
         -22.984639   0.051038 -12.152835 xy xz yz

Masses

    1    65.380000000 # Zn3f2
    2     1.007940000 # H_
    3    12.010700000 # C_R
    4    12.010700000 # C_3
    5    14.006700000 # N_R
    6    15.999400000 # O_R

Bond Coeffs

    1      148.759211        1.886642  # Zn3f2 O_R
    2      154.048673        1.928536  # Zn3f2 N_R
    3      357.440381        1.081418  # H_ C_R
    4      331.069389        1.109401  # H_ C_3
    5      529.459447        1.043423  # H_ N_R
    6      646.680887        1.311940  # C_R O_R
    7      391.669513        1.458000  # C_R C_R
    8      462.655054        1.379256  # C_R C_R
    9      663.718927        1.345073  # C_R N_R
   10      529.724731        1.450075  # C_3 N_R
   11      369.943935        1.486000  # C_3 C_R

Angle Coeffs

    1                      fourier       47.099941        0.343737        0.374972        0.281246 # N_R Zn3f2 O_R
    2                      fourier       49.333327        0.343737        0.374972        0.281246 # N_R Zn3f2 N_R
    3                      fourier       45.004281        0.343737        0.374972        0.281246 # O_R Zn3f2 O_R
    4              cosine/periodic      137.761490              -1               3 # O_R C_R C_R
    5              cosine/periodic      217.450257              -1               3 # O_R C_R O_R
    6              cosine/periodic      101.626578              -1               3 # C_R C_R C_R
    7              cosine/periodic      117.010657              -1               3 # C_R C_R C_R
    8              cosine/periodic      165.695700              -1               3 # N_R C_R C_R
    9              cosine/periodic       76.817955              -1               3 # H_ C_R C_R
   10              cosine/periodic      109.704024              -1               3 # N_R C_R H_
   11              cosine/periodic      234.844275              -1               3 # N_R C_R N_R
   12                      fourier       61.342703        0.343737        0.374972        0.281246 # H_ C_3 H_
   13                      fourier      145.046652        0.343737        0.374972        0.281246 # N_R C_3 C_R
   14                      fourier      105.679036        0.343737        0.374972        0.281246 # H_ C_3 N_R
   15                      fourier       73.868412        0.343737        0.374972        0.281246 # H_ C_3 C_R
   16              cosine/periodic       96.739224              -1               3 # C_3 C_R C_R
   17              cosine/periodic       33.704159              -1               3 # Zn3f2 N_R C_R
   18              cosine/periodic      132.654363              -1               3 # C_R N_R C_R
   19              cosine/periodic      109.494736              -1               3 # C_R N_R C_3
   20              cosine/periodic       65.483679              -1               3 # H_ N_R H_
   21              cosine/periodic       89.115099              -1               3 # H_ N_R C_R
   22              cosine/periodic       46.721183              -1               3 # Zn3f2 O_R C_R

Dihedral Coeffs

    1        2.245703              -1               2 # C_R C_R O_R Zn3f2
    2        0.555556              -1               2 # O_R C_R C_R C_R
    3        1.497136              -1               2 # C_R C_R C_R C_R
    4        0.416667              -1               2 # H_ C_3 N_R C_R
    5        0.083333               1               3 # C_R C_R C_3 H_

Improper Coeffs

    1        2.000000        1.000000       -1.000000        0.000000               0 # O_R C_R O_R C_R

Pair Coeffs

    1        0.124000        2.461553 # Zn3f2 Zn3f2
    2        0.044000        2.571134 # H_ H_
    3        0.105000        3.430851 # C_R C_R
    4        0.105000        3.430851 # C_3 C_3
    5        0.069000        3.260689 # N_R N_R
    6        0.060000        3.118146 # O_R O_R

Atoms

       1      444        1     0.88369   -0.16179    2.95959    9.57558
       2      444        1     0.88369   -5.90784   13.47892    9.57507
       3      444        1     0.88369   11.55973    2.95926    9.57481
       4      444        1     0.88369    5.81368   13.47981    9.57190
       5      444        1     0.88369    0.35974    6.05306    3.29463
       6      444        1     0.88369   -5.38616   16.57291    3.29616
       7      444        1     0.88369   12.08172    6.05235    3.29489
       8      444        1     0.88369    6.33588   16.57216    3.29654
       9      444        2     0.11443    3.77500    3.63095    2.09834
      10      444        2     0.11443   -1.97008   14.15182    2.09910
      11      444        2     0.11443   15.49780    3.63046    2.09821
      12      444        2     0.11443    9.75274   14.15127    2.09910
      13      444        2     0.11443    0.66420   -3.63294   12.10205
      14      444        2     0.11443   -5.08113    6.88713   12.10344
      15      444        2     0.11443   12.38624   -3.63391   12.10306
      16      444        2     0.11443    6.64094    6.88622   12.10446
      17      444        2     0.11443    2.29589   -5.11396   10.87989
      18      444        2     0.11443   -3.44932    5.40639   10.88103
      19      444        2     0.11443   14.01771   -5.11469   10.88027
      20      444        2     0.11443    8.27255    5.40570   10.88141
      21      444        2     0.11443    1.44780    2.66086    6.77361
      22      444        2     0.11443   -4.29778   13.18051    6.77348
      23      444        2     0.11443   13.16932    2.66053    6.77285
      24      444        2     0.11443    7.42377   13.18022    6.77272
      25      444        2     0.11443    0.90352    5.96901    9.33076
      26      444        2     0.11443   -4.84267   16.48854    9.33064
      27      444        2     0.11443   12.62500    5.96860    9.33013
      28      444        2     0.11443    6.87893   16.48829    9.32975
      29      444        2     0.11443    2.56491    6.73726    7.23103
      30      444        2     0.11443   -3.18098   17.25696    7.23128
      31      444        2     0.11443   14.28665    6.73677    7.23065
      32      444        2     0.11443    8.54088   17.25651    7.23090
      33      444        2     0.11443    2.96585    5.48311    4.86075
      34      444        2     0.11443   -2.77946   16.00260    4.86227
      35      444        2     0.11443   14.68778    5.48213    4.86138
      36      444        2     0.11443    8.94255   16.00219    4.86176
      37      444        2     0.11443    2.84790    3.71667    4.90018
      38      444        2     0.11443   -2.89776   14.23677    4.90005
      39      444        2     0.11443   14.56994    3.71622    4.89980
      40      444        2     0.11443    8.82438   14.23632    4.89967
      41      444        2     0.11443    4.61642    2.35582    6.07366
      42      444        2     0.11443   -1.12956   12.87517    6.07327
      43      444        2     0.11443   16.33835    2.35561    6.07378
      44      444        2     0.11443   10.59241   12.87496    6.07340
      45      444        2     0.11443    6.95591    2.24102    6.87998
      46      444        2     0.11443    1.20982   12.75975    6.87972
      47      444        2     0.11443   18.67767    2.24114    6.88061
      48      444        2     0.11443   12.93165   12.75982    6.88036
      49      444        2     0.11443   -4.48471    6.53541    6.67789
      50      444        2     0.11443  -10.22995   17.05407    6.67928
      51      444        2     0.11443    7.23620    6.53526    6.67738
      52      444        2     0.11443    1.49085   17.05399    6.67878
      53      444        2     0.11443    4.90350    6.65114    5.86726
      54      444        2     0.11443   -0.84175   17.17058    5.86840
      55      444        2     0.11443   16.62500    6.65095    5.86726
      56      444        2     0.11443   10.87987   17.17035    5.86840
      57      444        2     0.11443   -2.83595    3.40824    7.90474
      58      444        2     0.11443   -8.58186   13.92617    7.90499
      59      444        2     0.11443    8.88470    3.40797    7.90411
      60      444        2     0.11443    3.13869   13.92595    7.90449
      61      444        2     0.11443   -2.74078    5.17601    7.89460
      62      444        2     0.11443   -8.48647   15.69388    7.89587
      63      444        2     0.11443    8.98001    5.17571    7.89396
      64      444        2     0.11443    3.23421   15.69366    7.89523
      65      444        2     0.11443   -1.31053    6.27222    6.08430
      66      444        2     0.11443   -7.05625   16.79098    6.08595
      67      444        2     0.11443   10.41086    6.27167    6.08405
      68      444        2     0.11443    4.66512   16.79041    6.08583
      69      444        2     0.11443   -0.73266    3.05122    3.42826
      70      444        2     0.11443   -6.47828   13.57130    3.42813
      71      444        2     0.11443   10.98870    3.05304    3.42306
      72      444        2     0.11443    5.24307   13.57055    3.42839
      73      444        2     0.11443   -2.40904    2.21046    5.49237
      74      444        2     0.11443   -8.15470   12.72949    5.49224
      75      444        2     0.11443    9.31151    2.21020    5.49161
      76      444        2     0.11443    3.56574   12.72959    5.49085
      77      444        2     0.33632    6.31903    1.82728    0.00000
      78      444        2     0.33632    0.57400   12.34862    0.00000
      79      444        2     0.33632   18.04155    1.82669    0.00000
      80      444        2     0.33632   12.29652   12.34799    0.00000
      81      444        2     0.33632    6.01259    2.81055    1.68694
      82      444        2     0.33632    0.26762   13.33186    1.68732
      83      444        2     0.33632   17.73551    2.81049    1.68580
      84      444        2     0.33632   11.99054   13.33175    1.68618
      85      444        2     0.11443    8.08119    0.57880    8.47741
      86      444        2     0.11443    2.33651   11.09681    8.47728
      87      444        2     0.11443   19.80231    0.57849    8.47766
      88      444        2     0.11443   14.05764   11.09629    8.47766
      89      444        2     0.11443   -0.58732   -0.60987    5.70802
      90      444        2     0.11443   -6.33292    9.91077    5.70511
      91      444        2     0.11443   11.13353   -0.61006    5.70764
      92      444        2     0.11443    5.38795    9.91012    5.70561
      93      444        2     0.11443    9.45467   -2.05951    4.51287
      94      444        2     0.11443    3.70891    8.46085    4.51096
      95      444        2     0.11443   21.17637   -2.05963    4.51325
      96      444        2     0.11443   15.43063    8.46085    4.51109
      97      444        2     0.11443   -1.26436    5.74866    0.51384
      98      444        2     0.11443   -7.00977   16.26764    0.51511
      99      444        2     0.11443   10.45748    5.74769    0.51397
     100      444        2     0.11443    4.71212   16.26668    0.51523
     101      444        2     0.11443   -0.73351    9.06534    3.06212
     102      444        2     0.11443    5.01949   -1.46788    3.06263
     103      444        2     0.11443   10.98905    9.06464    3.06174
     104      444        2     0.11443   16.74164   -1.46770    3.06225
     105      444        2     0.11443   -2.38819    9.82573    0.95212
     106      444        2     0.11443   -8.13395   20.34486    0.95174
     107      444        2     0.11443    9.33425    9.82499    0.95174
     108      444        2     0.11443    3.58860   20.34403    0.95148
     109      444        2     0.11443   -2.74312    2.48954   11.26061
     110      444        2     0.11443   -8.48801   13.00740   11.26150
     111      444        2     0.11443    8.97896    2.48802   11.26162
     112      444        2     0.11443    3.23418   13.00633   11.26150
     113      444        2     0.11443   -2.60478    0.72629   11.29611
     114      444        2     0.11443   -8.34965   11.24413   11.29763
     115      444        2     0.11443    9.11694    0.72478   11.29725
     116      444        2     0.11443    3.37216   11.24304   11.29788
     117      444        2     0.11443    7.34413   -0.66457   12.41266
     118      444        2     0.11443    1.59821    9.85406   12.41051
     119      444        2     0.11443   19.06491   -0.66407   12.41228
     120      444        2     0.11443   13.31891    9.85454   12.41038
     121      444        2     0.11443    4.96295    5.25929    0.48684
     122      444        2     0.11443   -0.78314   15.77788    0.48481
     123      444        2     0.11443   16.68376    5.25906    0.48696
     124      444        2     0.11443   10.93763   15.77788    0.48468
     125      444        2     0.11443    4.63652    9.55163    0.33521
     126      444        2     0.11443   -1.10815   20.07062    0.33559
     127      444        2     0.11443   16.35652    9.55198    0.33470
     128      444        2     0.11443   10.61178   20.07061    0.33597
     129      444        2     0.11443   -4.71132    3.62940   12.25736
     130      444        2     0.11443  -10.45596   14.14825   12.25799
     131      444        2     0.11443    7.01094    3.63380   12.24696
     132      444        2     0.11443    1.26642   14.14774   12.25774
     133      444        2     0.11443    3.00497    6.39879    1.50450
     134      444        2     0.11443   -2.74054   16.91811    1.50361
     135      444        2     0.11443   14.72561    6.39826    1.50437
     136      444        2     0.11443    8.98006   16.91761    1.50361
     137      444        2     0.11443    2.88848    8.16361    1.49626
     138      444        2     0.11443   -2.85668   18.68295    1.49524
     139      444        2     0.11443   14.60872    8.16306    1.49626
     140      444        2     0.11443    8.86351   18.68245    1.49537
     141      444        2     0.11443    1.51501    3.17992   12.34547
     142      444        2     0.11443   -4.23040   13.69930   12.34483
     143      444        2     0.11443   13.23608    3.17958   12.34483
     144      444        2     0.11443    7.49062   13.69903   12.34420
     145      444        2     0.11443    0.95205   -0.04750    9.69475
     146      444        2     0.11443   -4.79442   10.47184    9.69437
     147      444        2     0.11443   12.67318   -0.04807    9.69437
     148      444        2     0.11443    6.92672   10.47129    9.69411
     149      444        2     0.11443    2.62251   -0.88194   11.76900
     150      444        2     0.11443   -3.12360    9.63728   11.76824
     151      444        2     0.11443   14.34295   -0.88249   11.76900
     152      444        2     0.11443    8.59676    9.63669   11.76849
     153      444        2     0.33632    5.46984   -1.36028    6.81088
     154      444        2     0.33632   -0.27508    9.15822    6.81101
     155      444        2     0.33632   17.19134   -1.36099    6.81101
     156      444        2     0.33632   11.44646    9.15734    6.81114
     157      444        2     0.33632    5.82466   -0.20951    8.11266
     158      444        2     0.33632    0.08021   10.30816    8.11329
     159      444        2     0.33632   17.54590   -0.21008    8.11266
     160      444        2     0.33632   11.80149   10.30726    8.11355
     161      444        3     0.64663   -0.87001    4.98825   11.38308
     162      444        3     0.64663   -6.61701   15.50711   11.38232
     163      444        3     0.64663   10.85200    4.98788   11.38257
     164      444        3     0.64663    5.10497   15.50676   11.38181
     165      444        3    -0.08129    3.95755   -4.62872   12.13438
     166      444        3    -0.08129   -1.78763    5.89184   12.13539
     167      444        3    -0.08129   15.67973   -4.62911   12.13413
     168      444        3    -0.08129    9.93457    5.89137   12.13527
     169      444        3     0.36315    4.38330    2.20987    0.57660
     170      444        3     0.36315   -1.36177   12.73089    0.57723
     171      444        3     0.36315   16.10574    2.20951    0.57622
     172      444        3     0.36315   10.36071   12.73044    0.57698
     173      444        3    -0.12762    3.45318    3.04162    1.23877
     174      444        3    -0.12762   -2.29202   13.56222    1.23978
     175      444        3    -0.12762   15.17577    3.04111    1.23877
     176      444        3    -0.12762    9.43060   13.56171    1.23978
     177      444        3    -0.08129    2.12406    3.12191    0.83104
     178      444        3    -0.08129   -3.62109   13.64267    0.83180
     179      444        3    -0.08129   13.84642    3.12099    0.83168
     180      444        3    -0.08129    8.10134   13.64180    0.83244
     181      444        3    -0.12762    1.70561   -3.71188   12.40898
     182      444        3    -0.12762   -4.03969    6.80837   12.41013
     183      444        3    -0.12762   13.42776   -3.71260   12.40949
     184      444        3    -0.12762    7.68252    6.80758   12.41076
     185      444        3    -0.12762    2.60896   -4.52632   11.74263
     186      444        3    -0.12762   -3.13622    5.99420   11.74364
     187      444        3    -0.12762   14.33096   -4.52705   11.74301
     188      444        3    -0.12762    8.58582    5.99349   11.74402
     189      444        3     0.64663    1.15616    4.03129    1.54101
     190      444        3     0.64663   -4.58928   14.55131    1.54228
     191      444        3     0.64663   12.87857    4.03052    1.54152
     192      444        3     0.64663    7.13316   14.55048    1.54291
     193      444        3     0.11659    1.52977    3.66199    7.18285
     194      444        3     0.11659   -4.21593   14.18166    7.18273
     195      444        3     0.11659   13.25129    3.66160    7.18222
     196      444        3     0.11659    7.50563   14.18131    7.18209
     197      444        3    -0.05077    1.25958    5.40790    8.47588
     198      444        3    -0.05077   -4.48645   15.92776    8.47525
     199      444        3    -0.05077   12.98107    5.40751    8.47525
     200      444        3    -0.05077    7.23517   15.92710    8.47525
     201      444        3    -0.05077    2.08904    5.79158    7.45632
     202      444        3    -0.05077   -3.65682   16.31126    7.45645
     203      444        3    -0.05077   13.81067    5.79115    7.45581
     204      444        3    -0.05077    8.06493   16.31085    7.45594
     205      444        4    -0.06349    3.14877    4.59603    5.48299
     206      444        4    -0.06349   -2.59678   15.11590    5.48311
     207      444        4    -0.06349   14.87063    4.59562    5.48261
     208      444        4    -0.06349    9.12516   15.11545    5.48286
     209      444        3    -0.08129    4.59519    4.51205    5.91493
     210      444        3    -0.08129   -1.15040   15.03148    5.91531
     211      444        3    -0.08129   16.31695    4.51182    5.91493
     212      444        3    -0.08129   10.57143   15.03125    5.91531
     213      444        3    -0.12762    5.18852    3.27656    6.20487
     214      444        3    -0.12762   -0.55731   13.79580    6.20487
     215      444        3    -0.12762   16.91033    3.27642    6.20513
     216      444        3    -0.12762   11.16455   13.79561    6.20513
     217      444        3    -0.12762    6.50439    3.21081    6.66420
     218      444        3    -0.12762    0.75849   13.72971    6.66420
     219      444        3    -0.12762   18.22608    3.21084    6.66470
     220      444        3    -0.12762   12.48024   13.73389    6.65596
     221      444        3    -0.08129    7.25660    4.38017    6.84232
     222      444        3    -0.08129    1.51085   14.89834    6.84397
     223      444        3    -0.08129   18.97812    4.37998    6.84359
     224      444        3    -0.08129   13.23244   14.89842    6.84461
     225      444        3    -0.12762    6.66462    5.61417    6.54807
     226      444        3    -0.12762    0.91911   16.13302    6.54908
     227      444        3    -0.12762   18.38605    5.61420    6.54857
     228      444        3    -0.12762   12.64066   16.13307    6.54946
     229      444        3    -0.12762    5.34984    5.68019    6.08747
     230      444        3    -0.12762   -0.39559   16.19945    6.08836
     231      444        3    -0.12762   17.07140    5.68009    6.08760
     232      444        3    -0.12762   11.32605   16.19932    6.08849
     233      444        4    -0.06349   -3.02258    4.30200    7.29391
     234      444        4    -0.06349   -8.76833   14.82022    7.29467
     235      444        4    -0.06349    8.69814    4.30170    7.29328
     236      444        4    -0.06349    2.95231   14.82002    7.29404
     237      444        3     0.11659   -1.38283    5.28491    5.64298
     238      444        3     0.11659   -7.12850   15.80375    5.64438
     239      444        3     0.11659   10.33842    5.28429    5.64286
     240      444        3     0.11659    4.59273   15.80441    5.64172
     241      444        3    -0.05077   -1.09632    3.58080    4.30038
     242      444        3    -0.05077   -6.84194   14.10028    4.30089
     243      444        3    -0.05077   10.62491    3.58025    4.30013
     244      444        3    -0.05077    4.87926   14.09989    4.30038
     245      444        3    -0.05077   -1.93505    3.16440    5.29992
     246      444        3    -0.05077   -7.68069   13.68351    5.30017
     247      444        3    -0.05077    9.78576    3.16405    5.29928
     248      444        3    -0.05077    4.04004   13.68316    5.29966
     249      444        3     0.64663    1.14082    8.06135    5.07628
     250      444        3     0.64663   -4.60576   18.58129    5.07780
     251      444        3     0.64663   12.86259    8.06044    5.07704
     252      444        3     0.64663    7.11600   18.58060    5.07818
     253      444        3    -0.08129    7.83205   -1.57311    5.81693
     254      444        3    -0.08129    2.08674    8.94617    5.81591
     255      444        3    -0.08129   19.55359   -1.57316    5.81667
     256      444        3    -0.08129   13.80829    8.94614    5.81540
     257      444        3     0.36315    7.41804   -0.81789    6.95604
     258      444        3     0.36315    1.67307    9.70065    6.95566
     259      444        3     0.36315   19.13947   -0.81843    6.95643
     260      444        3     0.36315   13.39452    9.69998    6.95604
     261      444        3    -0.12762    8.37415   -0.00438    7.60338
     262      444        3    -0.12762    2.62922   10.51407    7.60300
     263      444        3    -0.12762   20.09534   -0.00455    7.60364
     264      444        3    -0.12762   14.35045   10.51376    7.60326
     265      444        3    -0.08129    9.69261    0.06873    7.16067
     266      444        3    -0.08129    3.94749   10.58798    7.15927
     267      444        3    -0.08129   21.41396    0.06834    7.16130
     268      444        3    -0.08129   15.66883   10.58739    7.16029
     269      444        3    -0.12762   10.09985   -0.68139    6.04145
     270      444        3    -0.12762    4.35444    9.83836    6.03993
     271      444        3    -0.12762   21.82121   -0.68122    6.04171
     272      444        3    -0.12762   16.07580    9.83849    6.04019
     273      444        3    -0.12762    9.17066   -1.47875    5.39018
     274      444        3    -0.12762    3.42512    9.04111    5.38866
     275      444        3    -0.12762   20.89223   -1.47893    5.39056
     276      444        3    -0.12762   15.14671    9.04095    5.38892
     277      444        3     0.64663   -1.03486    0.96114    7.85618
     278      444        3     0.64663   -6.78012   11.48018    7.85542
     279      444        3     0.64663   10.68623    0.96087    7.85606
     280      444        3     0.64663    4.94097   11.48005    7.85517
     281      444        3     0.11659   -1.34868    6.75190    0.91789
     282      444        3     0.11659   -7.09431   17.27145    0.91789
     283      444        3     0.11659   10.37332    6.75091    0.91801
     284      444        3     0.11659    4.62774   17.27004    0.91890
     285      444        3    -0.05077   -1.08756    8.50123    2.20813
     286      444        3    -0.05077   -6.83367   19.02077    2.20851
     287      444        3    -0.05077   10.63484    8.50077    2.20724
     288      444        3    -0.05077    4.88879   19.01995    2.20838
     289      444        3    -0.05077   -1.91360    8.88092    1.18362
     290      444        3    -0.05077   -7.65939   19.40008    1.18375
     291      444        3    -0.05077    9.80874    8.88014    1.18337
     292      444        3    -0.05077    4.06303   19.39927    1.18349
     293      444        4    -0.06349   -2.92542    1.59941   11.87803
     294      444        4    -0.06349   -8.67052   12.11775   11.87854
     295      444        4    -0.06349    8.79652    1.59830   11.87854
     296      444        4    -0.06349    3.05154   12.11678   11.87866
     297      444        3    -0.08129    7.34359    1.49322   12.28347
     298      444        3    -0.08129    1.59841   12.01190   12.28296
     299      444        3    -0.08129   19.06389    1.49379   12.28335
     300      444        3    -0.08129   13.31864   12.01245   12.28296
     301      444        3    -0.12762    6.75840    0.24773   12.54362
     302      444        3    -0.12762    1.01274   10.76619   12.54261
     303      444        3    -0.12762   18.47899    0.24789   12.54388
     304      444        3    -0.12762   12.73327   10.76659   12.54248
     305      444        3    -0.12762    5.40751    6.23669    0.29362
     306      444        3    -0.12762   -0.33827   16.75551    0.29185
     307      444        3    -0.12762   17.12816    6.23681    0.29337
     308      444        3    -0.12762   11.38231   16.75566    0.29172
     309      444        3    -0.08129    4.63800    7.39423    0.47289
     310      444        3    -0.08129   -1.10740   17.91317    0.47188
     311      444        3    -0.08129   16.35845    7.39416    0.47289
     312      444        3    -0.08129   10.61297   17.91313    0.47200
     313      444        3    -0.12762    5.22182    8.63915    0.20602
     314      444        3    -0.12762   -0.52314   19.15827    0.20538
     315      444        3    -0.12762   16.94200    8.63919    0.20627
     316      444        3    -0.12762   11.19696   19.15819    0.20602
     317      444        3    -0.12762    6.57157    2.65012   12.45551
     318      444        3    -0.12762    0.82671   13.16890   12.45564
     319      444        3    -0.12762   18.29169    2.65050   12.45564
     320      444        3    -0.12762   12.54677   13.16932   12.45577
     321      444        4    -0.06349    3.18999    7.29510    0.89697
     322      444        4    -0.06349   -2.55541   17.81476    0.89507
     323      444        4    -0.06349   14.91046    7.29466    0.89697
     324      444        4    -0.06349    9.16500   17.81394    0.89608
     325      444        3     0.11659    1.59048    2.19085   11.90820
     326      444        3     0.11659   -4.15514   12.71029   11.90744
     327      444        3     0.11659   13.31146    2.19044   11.90770
     328      444        3     0.11659    7.56580   12.70990   11.90706
     329      444        3    -0.05077    1.31438    0.48472   10.56586
     330      444        3    -0.05077   -4.43184   11.00386   10.56573
     331      444        3    -0.05077   13.03537    0.48400   10.56586
     332      444        3    -0.05077    7.28914   11.00338   10.56547
     333      444        3    -0.05077    2.14964    0.07145   11.57059
     334      444        3    -0.05077   -3.59636   10.59070   11.56995
     335      444        3    -0.05077   13.87027    0.07084   11.57059
     336      444        3    -0.05077    8.12424   10.59020   11.56995
     337      444        5    -0.39495    0.91605    4.07749    8.29522
     338      444        5    -0.39495   -4.82988   14.59672    8.29573
     339      444        5    -0.39495   12.63748    4.07678    8.29522
     340      444        5    -0.39495    6.89162   14.59635    8.29510
     341      444        5     0.02506    2.24771    4.67956    6.64467
     342      444        5     0.02506   -3.49796   15.19926    6.64480
     343      444        5     0.02506   13.96933    4.67913    6.64417
     344      444        5     0.02506    8.22373   15.19887    6.64429
     345      444        5    -0.39495   -0.75629    4.90638    4.52453
     346      444        5    -0.39495   -6.50197   15.42574    4.52567
     347      444        5    -0.39495   10.96520    4.90617    4.52351
     348      444        5    -0.39495    5.21953   15.42509    4.52567
     349      444        5     0.02506   -2.10464    4.25136    6.14250
     350      444        5     0.02506   -7.85029   14.76966    6.14414
     351      444        5     0.02506    9.61617    4.25059    6.14275
     352      444        5     0.02506    3.87045   14.76934    6.14364
     353      444        5    -0.63868    5.67267    2.11204    1.03300
     354      444        5    -0.63868   -0.07231   12.63322    1.03351
     355      444        5    -0.63868   17.39539    2.11191    1.03199
     356      444        5    -0.63868   11.65041   12.63301    1.03262
     357      444        5    -0.39495   -0.74041    7.17081    2.03241