Created on Tue Feb 06 14:32:48 2018 

        2624 atoms
        3136 bonds
        5760 angles
        6912 dihedrals
        3840 impropers

           6 atom types
           9 bond types
          17 angle types
           6 dihedral types
           1 improper types
           0.000000  41.272000 xlo xhi
           0.000000  30.997999 ylo yhi
           0.000000  47.443703 zlo zhi
          -0.008115   0.013249   0.167270 xy xz yz

Masses

    1    65.380000000 # Zn3+2
    2     1.007940000 # H_
    3    12.010700000 # C_R
    4    12.010700000 # C_3
    5    15.999400000 # O_R
    6    15.999400000 # O_3_z

Bond Coeffs

    1      206.072830        1.692429  # Zn3+2 O_3_z
    2      160.291409        1.840266  # Zn3+2 O_R
    3      357.440381        1.081418  # H_ C_R
    4      331.069389        1.109401  # H_ C_3
    5      646.680887        1.311940  # C_R O_R
    6      391.669513        1.458000  # C_R C_R
    7      462.655054        1.379256  # C_R C_R
    8      369.943935        1.486000  # C_R C_3
    9      720.012703        1.265797  # C_3 O_3_z

Angle Coeffs

    1                      fourier       62.467680        0.343737        0.374972        0.281246 # O_3_z Zn3+2 O_R
    2                      fourier       50.968023        0.343737        0.374972        0.281246 # O_R Zn3+2 O_R
    3              cosine/periodic      217.450257              -1               3 # O_R C_R O_R
    4              cosine/periodic      137.761490              -1               3 # O_R C_R C_R
    5              cosine/periodic      101.626578              -1               3 # C_R C_R C_R
    6              cosine/periodic      117.010657              -1               3 # C_R C_R C_R
    7              cosine/periodic       76.817955              -1               3 # H_ C_R C_R
    8              cosine/periodic      130.962624              -1               3 # C_3 C_R O_R
    9                      fourier       73.868412        0.343737        0.374972        0.281246 # C_R C_3 H_
   10                      fourier      140.430538        0.343737        0.374972        0.281246 # O_3_z C_3 H_
   11                      fourier      180.345994        0.343737        0.374972        0.281246 # O_3_z C_3 C_R
   12                      fourier      102.595193        0.343737        0.374972        0.281246 # C_R C_3 C_R
   13              cosine/periodic       96.739224              -1               3 # C_3 C_R C_R
   14              cosine/periodic       50.430477              -1               3 # C_R O_R Zn3+2
   15                      fourier       12.695596        1.898490        2.651251        0.799497 # Zn3+2 O_3_z Zn3+2
   16                      fourier       36.864345        1.898490        2.651251        0.799497 # Zn3+2 O_3_z C_3
   17              cosine/periodic       16.270355              -1               3 # Zn3+2 O_R Zn3+2

Dihedral Coeffs

    1        2.245703              -1               2 # O_R C_R O_R Zn3+2
    2        0.555556              -1               2 # O_R C_R C_R C_R
    3        1.497136              -1               2 # C_R C_R C_R H_
    4        0.083333               1               3 # O_R C_R C_3 C_R
    5        0.085777               1               2 # H_ C_3 O_3_z Zn3+2
    6        0.416667              -1               2 # C_R C_3 C_R C_R

Improper Coeffs

    1        2.000000        1.000000       -1.000000        0.000000               0 # C_R C_R O_R O_R

Pair Coeffs

    1        0.124000        2.461553 # Zn3+2 Zn3+2
    2        0.044000        2.571134 # H_ H_
    3        0.105000        3.430851 # C_R C_R
    4        0.105000        3.430851 # C_3 C_3
    5        0.060000        3.118146 # O_R O_R
    6        0.060000        3.118146 # O_3_z O_3_z

Atoms

       1      444        1     1.07767    6.29659    4.70632    0.47183
       2      444        1     1.07767   16.61484    4.70632    0.47183
       3      444        1     1.11143    4.24327    2.20824   23.25121
       4      444        1     1.11143   14.56152    2.20824   23.25121
       5      444        1     1.07767    9.23170   10.83072   12.31117
       6      444        1     1.07767   19.54994   10.83071   12.31117
       7      444        1     1.11143    0.97259   13.41852   11.41187
       8      444        1     1.11143   11.29084   13.41852   11.41187
       9      444        1     1.07767    4.07205   12.50147   11.41021
      10      444        1     1.07767   14.39029   12.50146   11.41092
      11      444        1     1.11143    6.13241    9.91363   12.31093
      12      444        1     1.11143   16.45066    9.91361   12.30927
      13      444        1     1.07767    1.14408    3.12674   23.25074
      14      444        1     1.07767   11.46233    3.12674   23.25074
      15      444        1     1.11143    9.39553    5.62518    0.47040
      16      444        1     1.11143   19.71380    5.62517    0.46969
      17      444        2     0.09920    0.30224    1.75693   19.49936
      18      444        2     0.09920   10.62049    1.75698   19.49936
      19      444        2     0.09920   20.61234    0.93574   17.17747
      20      444        2     0.09920   10.29461    0.93581   17.17747
      21      444        2     0.09920    4.45739    0.65421   19.36415
      22      444        2     0.09920   14.77564    0.65418   19.36415
      23      444        2     0.09920    0.90999   15.38234   15.11936
      24      444        2     0.09920   11.22826   15.38237   15.11936
      25      444        2     0.09920    5.07140   14.33460   14.94975
      26      444        2     0.09920   15.38965   14.33457   14.94951
      27      444        2     0.09920    5.39818   15.14968   17.28540
      28      444        2     0.09920   15.71641   15.14962   17.28540
      29      444        2     0.09920    7.23831    1.22208   23.27588
      30      444        2     0.09920   17.55654    1.22208   23.27588
      31      444        2     0.09920    6.06237    4.09054   21.17152
      32      444        2     0.09920   16.38062    4.09059   21.17152
      33      444        2     0.09920    6.01747    4.02727   18.69448
      34      444        2     0.09920   16.33572    4.02732   18.69448
      35      444        2     0.09920    6.98761    2.08274   17.47494
      36      444        2     0.09920   17.30584    2.08279   17.47494
      37      444        2     0.09920    8.02115    0.20778   18.76304
      38      444        2     0.09920   18.33936    0.20783   18.76304
      39      444        2     0.09920    8.08210    0.29022   21.24078
      40      444        2     0.09920   18.40033    0.29023   21.24078
      41      444        2     0.09920    4.88770   13.87993    7.67758
      42      444        2     0.09920   15.20601   13.87989    7.67758
      43      444        2     0.09920    5.22137   14.66968    5.34145
      44      444        2     0.09920   15.53966   14.66965    5.34145
      45      444        2     0.09920    0.73194   14.97613    7.50844
      46      444        2     0.09920   11.05025   14.97611    7.50844
      47      444        2     0.09920    4.29579    0.19538    3.26697
      48      444        2     0.09920   14.61404    0.19537    3.26697
      49      444        2     0.09920    0.13261    1.23051    3.06486
      50      444        2     0.09920   10.45088    1.23053    3.06510
      51      444        2     0.09920   10.11547    0.44794    5.40953
      52      444        2     0.09920   20.43368    0.44796    5.40953
      53      444        2     0.09920    8.29402   14.39987   11.39930
      54      444        2     0.09920   18.61227   14.39987   11.39930
      55      444        2     0.09920    9.47483   11.53257    9.30015
      56      444        2     0.09920   19.79306   11.53250    9.30015
      57      444        2     0.09920    9.51176   11.58685    6.82240
      58      444        2     0.09920   19.83001   11.58677    6.82264
      59      444        2     0.09920    8.52833   13.52217    5.59907
      60      444        2     0.09920   18.84660   13.52210    5.59907
      61      444        2     0.09920    7.48959   15.39697    6.88361
      62      444        2     0.09920   17.80790   15.39692    6.88361
      63      444        2     0.09920    7.43733   15.32317    9.36207
      64      444        2     0.09920   17.75562   15.32316    9.36207
      65      444        2     0.09920   10.05020    9.45210   16.04309
      66      444        2     0.09920   20.36849    9.45192   16.04309
      67      444        2     0.09920   10.38564    8.66274   18.37898
      68      444        2     0.09920    0.00288    8.66250   18.37898
      69      444        2     0.09920    5.89480    8.35493   16.21531
      70      444        2     0.09920   16.21303    8.35499   16.21531
      71      444        2     0.09920    9.45770    7.63848   20.45440
      72      444        2     0.09920   19.77599    7.63834   20.45440
      73      444        2     0.09920    5.29494    6.60223   20.65936
      74      444        2     0.09920   15.61317    6.60233   20.65960
      75      444        2     0.09920    4.95770    7.38408   18.31493
      76      444        2     0.09920   15.27592    7.38419   18.31493
      77      444        2     0.09920    3.13533    8.93244   12.32374
      78      444        2     0.09920   13.45356    8.93244   12.32374
      79      444        2     0.09920    4.31619   11.80041   14.42217
      80      444        2     0.09920   14.63439   11.80041   14.42217
      81      444        2     0.09920    4.35509   11.74591   16.89968
      82      444        2     0.09920   14.67330   11.74591   16.89968
      83      444        2     0.09920    3.37375    9.80987   18.12349
      84      444        2     0.09920   13.69194    9.80985   18.12349
      85      444        2     0.09920    2.33517    7.93455   16.83777
      86      444        2     0.09920   12.65335    7.93455   16.83967
      87      444        2     0.09920    2.28088    8.00864   14.36121
      88      444        2     0.09920   12.59907    8.00866   14.36121
      89      444        2     0.09920    5.45563    6.07598    4.21941
      90      444        2     0.09920   15.77387    6.07598    4.21941
      91      444        2     0.09920    5.13055    6.89693    6.54604
      92      444        2     0.09920   15.44876    6.89698    6.54604
      93      444        2     0.09920    9.61081    7.17899    4.35794
      94      444        2     0.09920   19.92907    7.17883    4.35794
      95      444        2     0.09920    6.06905    7.94910    8.60415
      96      444        2     0.09920   16.38723    7.94913    8.60415
      97      444        2     0.09920   10.23036    8.99741    8.77187
      98      444        2     0.09920   20.54858    8.99730    8.77210
      99      444        2     0.09920    0.23807    8.18225    6.43645
     100      444        2     0.09920   10.55630    8.18243    6.43621
     101      444        2     0.09920    2.07258    6.61117    0.44621
     102      444        2     0.09920   12.39085    6.61117    0.44621
     103      444        2     0.09920    0.89771    3.74222    2.55081
     104      444        2     0.09920   11.21590    3.74225    2.55081
     105      444        2     0.09920    0.85433    3.80498    5.02785
     106      444        2     0.09920   11.17250    3.80503    5.02785
     107      444        2     0.09920    1.82451    5.74965    6.24715
     108      444        2     0.09920   12.14265    5.74970    6.24715
     109      444        2     0.09920    2.85628    7.62538    4.95882
     110      444        2     0.09920   13.17449    7.62541    4.95882
     111      444        2     0.09920    2.91572    7.54343    2.48107
     112      444        2     0.09920   13.23395    7.54345    2.48107
     113      444        3     0.71411    2.57239    1.74467   20.95778
     114      444        3     0.71411   12.89062    1.74465   20.95778
     115      444        3    -0.03484    2.40535    1.23992   19.56270
     116      444        3    -0.03484   12.72360    1.23991   19.56270
     117      444        3    -0.09105    1.13003    1.32947   18.94048
     118      444        3    -0.09105   11.44828    1.32951   18.94048
     119      444        3    -0.09105    0.95571    0.87434   17.65380
     120      444        3    -0.09105   11.27395    0.87437   17.65380
     121      444        3    -0.03484    2.04254    0.32276   16.92317
     122      444        3    -0.03484   12.36079    0.32278   16.92317
     123      444        3    -0.03484    3.33509    0.24353   17.54777
     124      444        3    -0.03484   13.65334    0.24352   17.54777
     125      444        3    -0.09105    3.48394    0.70524   18.87690
     126      444        3    -0.09105   13.80221    0.70525   18.87690
     127      444        3    -0.09105    1.88665   15.34353   15.60139
     128      444        3    -0.09105   12.20490   15.34353   15.60139
     129      444        3    -0.03484    2.96117   14.81281   14.90657
     130      444        3    -0.03484   13.27942   14.81283   14.90657
     131      444        3    -0.09105    4.24205   14.74969   15.52026
     132      444        3    -0.09105   14.56028   14.74966   15.52026
     133      444        3    -0.09105    4.41840   15.20060   16.80812
     134      444        3    -0.09105   14.73665   15.20057   16.80812
     135      444        3     0.71411    2.76419   14.26568   13.53094
     136      444        3     0.71411   13.08241   14.26570   13.53094
     137      444        3     0.71411    8.45220    2.95790   23.30980
     138      444        3     0.71411   18.77044    2.95790   23.30980
     139      444        4     0.08706    7.14675    2.25528   22.89088
     140      444        4     0.08706   17.46499    2.25529   22.89088
     141      444        3    -0.03484    7.07456    2.19535   21.36864
     142      444        3    -0.03484   17.39277    2.19537   21.36864
     143      444        3    -0.09105    6.49357    3.24170   20.64276
     144      444        3    -0.09105   16.81184    3.24175   20.64276
     145      444        3    -0.09105    6.46521    3.20128   19.24767
     146      444        3    -0.09105   16.78346    3.20132   19.24767
     147      444        3    -0.09105    7.01556    2.11379   18.56496
     148      444        3    -0.09105   17.33379    2.11383   18.56472
     149      444        3    -0.09105    7.59127    1.06373   19.28563
     150      444        3    -0.09105   17.90950    1.06377   19.28563
     151      444        3    -0.09105    7.62172    1.10563   20.68118
     152      444        3    -0.09105   17.93996    1.10564   20.68118
     153      444        3     0.71411    2.61678   13.90775    9.12342
     154      444        3     0.71411   12.93511   13.90774    9.12342
     155      444        3    -0.03484    2.78494   14.39767    7.72289
     156      444        3    -0.03484   13.10324   14.39765    7.72146
     157      444        3    -0.09105    4.06205   14.30026    7.10469
     158      444        3    -0.09105   14.38036   14.30022    7.10469
     159      444        3    -0.09105    4.24045   14.73751    5.81494
     160      444        3    -0.09105   14.55874   14.73748    5.81494
     161      444        3    -0.03484    3.15574   15.27762    5.07149
     162      444        3    -0.03484   13.47401   15.27759    5.07149
     163      444        3    -0.03484    1.86065   15.36319    5.69040
     164      444        3    -0.03484   12.17894   15.36317    5.69040
     165      444        3    -0.09105    1.70765   14.92050    7.02594
     166      444        3    -0.09105   12.02594   14.92046    7.02594
     167      444        3    -0.09105    3.31672    0.23854    3.74378
     168      444        3    -0.09105   13.63499    0.23854    3.74378
     169      444        3    -0.03484    2.24426    0.75678    3.03663
     170      444        3    -0.03484   12.56251    0.75677    3.03663
     171      444        3    -0.09105    0.96063    0.82545    3.64463
     172      444        3    -0.09105   11.27889    0.82546    3.64463
     173      444        3    -0.09105    0.77946    0.39273    4.93794
     174      444        3    -0.09105   11.09773    0.39272    4.93794
     175      444        3     0.71411    2.44382    1.28650    1.65412
     176      444        3     0.71411   12.76205    1.28651    1.65412
     177      444        3     0.71411    7.07824   12.66382   11.43085
     178      444        3     0.71411   17.39651   12.66382   11.43085
     179      444        4     0.08706    8.38430   13.36672   11.00694
     180      444        4     0.08706   18.70255   13.36675   11.01406
     181      444        3    -0.03484    8.45485   13.42387    9.49230
     182      444        3    -0.03484   18.77314   13.42386    9.49230
     183      444        3    -0.09105    9.03849   12.37737    8.76926
     184      444        3    -0.09105   19.35673   12.37731    8.76926
     185      444        3    -0.09105    9.06184   12.41272    7.37394
     186      444        3    -0.09105   19.38011   12.41266    7.37417
     187      444        3    -0.09105    8.50413   13.49514    6.68909
     188      444        3    -0.09105   18.82242   13.49507    6.68909
     189      444        3    -0.09105    7.92538   14.54504    7.40762
     190      444        3    -0.09105   18.24369   14.54497    7.40596
     191      444        3    -0.09105    7.90005   14.50844    8.80342
     192      444        3    -0.09105   18.21834   14.50841    8.80342
     193      444        3     0.71411    7.77791    9.42426   14.59890
     194      444        3     0.71411   18.09611    9.42429   14.59914
     195      444        3    -0.03484    7.94738    8.93394   15.99897
     196      444        3    -0.03484   18.26562    8.93391   15.99920
     197      444        3    -0.09105    9.22497    9.03168   16.61478
     198      444        3    -0.09105   19.54324    9.03151   16.61526
     199      444        3    -0.09105    9.40443    8.59462   17.90620
     200      444        3    -0.09105   19.72271    8.59446   17.90620
     201      444        3    -0.03484    8.32037    8.05440   18.65036
     202      444        3    -0.03484   18.63864    8.05430   18.65036
     203      444        3    -0.03484    7.02488    7.96829   18.03098
     204      444        3    -0.03484   17.34313    7.96828   18.03264
     205      444        3    -0.09105    6.87080    8.41081   16.69544
     206      444        3    -0.09105   17.18904    8.41078   16.69710
     207      444        3    -0.09105    8.47834    7.59491   19.97831
     208      444        3    -0.09105   18.79661    7.59484   19.97831
     209      444        3    -0.03484    7.40659    7.07653   20.68617
     210      444        3    -0.03484   17.72486    7.07648   20.68545
     211      444        3    -0.09105    6.12253    7.00735   20.07818
     212      444        3    -0.09105   16.44078    7.00743   20.07936
     213      444        3    -0.09105    5.94029    7.43970   18.78581
     214      444        3    -0.09105   16.25852    7.43974   18.78581
     215      444        3     0.71411    7.60743    6.54706   22.06868
     216      444        3     0.71411   17.92572    6.54700   22.06868
     217      444        3     0.71411    1.91953   10.66838   12.29171
     218      444        3     0.71411   12.23778   10.66838   12.29171
     219      444        4     0.08706    3.22576    9.96567   12.70874
     220      444        4     0.08706   13.54399    9.96567   12.70874
     221      444        3    -0.03484    3.29690    9.90864   14.23026
     222      444        3    -0.03484   13.61511    9.90864   14.22837
     223      444        3    -0.09105    3.88060   10.95534   14.95307
     224      444        3    -0.09105   14.19881   10.95534   14.95331
     225      444        3    -0.09105    3.90514   10.91988   16.34815
     226      444        3    -0.09105   14.22335   10.91988   16.34839
     227      444        3    -0.09105    3.34865    9.83704   17.03348
     228      444        3    -0.09105   13.66686    9.83704   17.03371
     229      444        3    -0.09105    2.76993    8.78688   16.31352
     230      444        3    -0.09105   13.08812    8.78688   16.31542
     231      444        3    -0.09105    2.74340    8.82367   14.91962
     232      444        3    -0.09105   13.06161    8.82368   14.91867
     233      444        3     0.71411    7.72530    6.08856    2.76454
     234      444        3     0.71411   18.04359    6.08847    2.76360
     235      444        3    -0.03484    7.55872    6.59314    4.15986
     236      444        3    -0.03484   17.87700    6.59302    4.15986
     237      444        3    -0.09105    6.28365    6.50346    4.78256
     238      444        3    -0.09105   16.60188    6.50349    4.78256
     239      444        3    -0.09105    6.10976    6.95842    6.06805
     240      444        3    -0.09105   16.42799    6.95836    6.06805
     241      444        3    -0.03484    7.19679    7.51004    6.79987
     242      444        3    -0.03484   17.51501    7.51001    6.79987
     243      444        3    -0.03484    8.48910    7.58943    6.17456
     244      444        3    -0.03484   18.80735    7.58931    6.17480
     245      444        3    -0.09105    8.63749    7.12784    4.84543
     246      444        3    -0.09105   18.95574    7.12779    4.84543
     247      444        3    -0.09105    7.04548    7.98802    8.12165
     248      444        3    -0.09105   17.36371    7.98794    8.12165
     249      444        3    -0.03484    8.12022    8.51886    8.81599
     250      444        3    -0.03484   18.43842    8.51886    8.81599
     251      444        3    -0.09105    9.40082    8.58218    8.20183
     252      444        3    -0.09105   19.71907    8.58206    8.20183
     253      444        3    -0.09105    9.57673    8.13139    6.91255
     254      444        3    -0.09105   19.89498    8.13128    6.91397
     255      444        3     0.71411    7.92378    9.06603   10.19091
     256      444        3     0.71411   18.24198    9.06608   10.19186
     257      444        3     0.71411    3.28642    4.87530    0.41229
     258      444        3     0.71411   13.60467    4.87532    0.41229
     259      444        4     0.08706    1.98094    5.57797    0.83121
     260      444        4     0.08706   12.29917    5.57796    0.83026
     261      444        3    -0.03484    1.90898    5.63786    2.35344
     262      444        3    -0.03484   12.22723    5.63788    2.35344
     263      444        3    -0.09105    1.32880    4.59120    3.07933
     264      444        3    -0.09105   11.64701    4.59123    3.07933
     265      444        3    -0.09105    1.30131    4.63132    4.47442
     266      444        3    -0.09105   11.61949    4.63135    4.47442
     267      444        3    -0.09105    1.85166    5.71888    5.15713
     268      444        3    -0.09105   12.16982    5.71893    5.15713
     269      444        3    -0.09105    2.42643    6.76936    4.43622
     270      444        3    -0.09105   12.74464    6.76939    4.43622
     271      444        3    -0.09105    2.45599    6.72773    3.03877
     272      444        3    -0.09105   12.77422    6.72775    3.03877
     273      444        5    -0.61363    3.67123    1.44977   21.55510
     274      444        5    -0.61363   13.98950    1.44978   21.55510
     275      444        5    -0.61363    1.61386    2.42566   21.43720
     276      444        5    -0.61363   11.93211    2.42568   21.43720
     277      444        5    -0.61363    1.57880   14.33085   13.04560
     278      444        5    -0.61363   11.89703   14.33082   13.04560
     279      444        5    -0.61363    3.78269   13.76382   12.95355
     280      444        5    -0.61363   14.10091   13.76380   12.95213
     281      444        6    -0.68243    6.03335    2.90024   23.48890
     282      444        6    -0.68243   16.35160    2.90024   23.48890
     283      444        5    -0.68243    8.31024    3.90240    0.34610
     284      444        5    -0.68243   18.62849    3.90240    0.34610
     285      444        5    -0.61363    9.53984    2.49115   22.89870
     286      444        5    -0.61363   19.85809    2.49115   22.89870
     287      444        5    -0.61363    1.51971   14.20994    9.72074
     288      444        5    -0.61363   11.83806   14.20992    9.72074
     289      444        5    -0.61363    3.57213   13.22721    9.60830
     290      444        5    -0.61363   13.89046   13.22715    9.60830
     291      444        5    -0.61363    3.62716    1.21223    1.16569
     292      444        5    -0.61363   13.94538    1.21224    1.16569
     293      444        5    -0.61363    1.42661    1.78681    1.07389
     294      444        5    -0.61363   11.74483    1.78687    1.07389
     295      444        6    -0.68243    9.49686   12.71963   11.61090
     296      444        6    -0.68243   19.81511   12.71964   11.60947
     297      444        5    -0.68243    7.21725   11.63351   12.18497
     298      444        5    -0.68243   17.53550   11.63348   12.18497
     299      444        5    -0.61363    5.98851   13.12827   11.02117
     300      444        5    -0.61363   16.30678   13.12828   11.02165
     301      444        5    -0.61363    6.68054    9.12217   14.00206
     302      444        5    -0.61363   16.99877    9.12214   14.00206
     303      444        5    -0.61363    8.73273   10.10535   14.11213
     304      444        5    -0.61363   19.05100   10.10526   14.11213
     305      444        5    -0.61363    8.79121    6.62097   22.55616
     306      444        5    -0.61363   19.10948    6.62100   22.55616
     307      444        5    -0.61363    6.59062    6.04709   22.64986
     308      444        5    -0.61363   16.90889    6.04720   22.65010
     309      444        6    -0.68243    4.33828   10.61258   12.11143
     310      444        6    -0.68243   14.65653   10.61260   12.11143
     311      444        5    -0.68243    2.05818   11.69857   11.53712
     312      444        5    -0.68243   12.37643   11.69856   11.53712
     313      444        5    -0.61363    0.82984   10.20378   12.70092
     314      444        5    -0.61363   11.14806   10.20378   12.70092
     315      444        5    -0.61363    8.82398    6.38359    2.16699
     316      444        5    -0.61363   19.14221    6.38363    2.16699
     317      444        5    -0.61363    6.76676    5.40754    2.28513
     318      444        5    -0.61363   17.08499    5.40758    2.28513
     319      444        5    -0.61363    6.73870    9.00056   10.67792
     320      444        5    -0.61363   17.05699    9.00042   10.67792
     321      444        5    -0.61363    8.94240    9.56846   10.76830
     322      444        5    -0.61363   19.26067    9.56837   10.76735
     323      444        6    -0.68243    0.86749    4.93307    0.23319
     324      444        6    -0.68243   11.18574    4.93307    0.23319
     325      444        5    -0.68243    3.15742    3.93086   23.37575
     326      444        5    -0.68243   13.47567    3.93086   23.37575
     327      444        5    -0.61363    4.37403    5.34190    0.82078
     328      444        5    -0.61363   14.69226    5.34190    0.82078
     329      444        1     1.07767    6.30322    4.78996   24.19368
     330      444        1     1.07767   16.62147    4.78996   24.19368
     331      444        1     1.11143    4.24990    2.29187   46.97306
     332      444        1     1.11143   14.56814    2.29187   46.97306
     333      444        1     1.07767    9.23832   10.91436   36.03302
     334      444        1     1.07767   19.55657   10.91434   36.03302
     335      444        1     1.11143    0.97921   13.50216   35.13372
     336      444        1     1.11143   11.29746   13.50216   35.13372
     337      444        1     1.07767    4.07867   12.58511   35.13206
     338      444        1     1.07767   14.39692   12.58509   35.13277
     339      444        1     1.11143    6.13903    9.99727   36.03278
     340      444        1     1.11143   16.45728    9.99725   36.03112
     341      444        1     1.07767    1.15071    3.21037   46.97259
     342      444        1     1.07767   11.46895    3.21037   46.97259
     343      444        1     1.11143    9.40215    5.70881   24.19226
     344      444        1     1.11143   19.72042    5.70881   24.19154
     345      444        2     0.09920    0.30887    1.84057   43.22121
     346      444        2     0.09920   10.62712    1.84061   43.22121
     347      444        2     0.09920   20.61896    1.01938   40.89932
     348      444        2     0.09920   10.30123    1.01944   40.89932
     349      444        2     0.09920    4.46401    0.73785   43.08600
     350      444        2     0.09920   14.78226    0.73781   43.08600
     351      444        2     0.09920    0.91661   15.46598   38.84121
     352      444        2     0.09920   11.23488   15.46601   38.84121
     353      444        2     0.09920    5.07803   14.41824   38.67160
     354      444        2     0.09920   15.39627   14.41820   38.67136
     355      444        2     0.09920    5.40481   15.23332   41.00725
     356      444        2     0.09920   15.72303   15.23326   41.00725
     357      444        2     0.09920    7.24494    1.30571   46.99773
     358      444        2     0.09920   17.56317    1.30571   46.99773
     359      444        2     0.09920    6.06900    4.17418   44.89337
     360      444        2     0.09920   16.38725    4.17422   44.89337
     361      444        2     0.09920    6.02410    4.11090   42.41633
     362      444        2     0.09920   16.34234    4.11095   42.41633
     363      444        2     0.09920    6.99424    2.16638   41.19679
     364      444        2     0.09920   17.31247    2.16642   41.19679