Created on Tue Feb 06 15:33:06 2018 

        2816 atoms
        3456 bonds
        6144 angles
        6144 dihedrals
        3456 impropers

           5 atom types
           7 bond types
          10 angle types
           3 dihedral types
           1 improper types
           0.000000  46.136000 xlo xhi
           0.000000  33.104000 ylo yhi
           0.000000  33.103999 zlo zhi
          -0.001156   0.000578  -0.006355 xy xz yz

Masses

    1    65.380000000 # Zn4+2
    2     1.007940000 # H_
    3    12.010700000 # C_R
    4    15.999400000 # O_R
    5    15.999400000 # O_3_z

Bond Coeffs

    1      127.647979        1.985391  # Zn4+2 O_R
    2      160.882159        1.838011  # Zn4+2 O_3_z
    3      357.440381        1.081418  # H_ C_R
    4      850.878848        0.861362  # H_ O_3_z
    5      462.655054        1.379256  # C_R C_R
    6      391.669513        1.458000  # C_R C_R
    7      646.680887        1.311940  # C_R O_R

Angle Coeffs

    1              cosine/periodic       72.700368               1               4 # O_R Zn4+2 O_3_z
    2              cosine/periodic       60.397389               1               4 # O_R Zn4+2 O_R
    3              cosine/periodic       76.817955              -1               3 # H_ C_R C_R
    4              cosine/periodic      117.010657              -1               3 # C_R C_R C_R
    5              cosine/periodic      101.626578              -1               3 # C_R C_R C_R
    6              cosine/periodic      217.450257              -1               3 # O_R C_R O_R
    7              cosine/periodic      137.761490              -1               3 # C_R C_R O_R
    8              cosine/periodic       39.831479              -1               3 # Zn4+2 O_R C_R
    9                      fourier       23.397332        1.898490        2.651251        0.799497 # Zn4+2 O_3_z H_
   10                      fourier        8.403593        1.898490        2.651251        0.799497 # Zn4+2 O_3_z Zn4+2

Dihedral Coeffs

    1        1.497136              -1               2 # C_R C_R C_R C_R
    2        0.555556              -1               2 # C_R C_R C_R O_R
    3        2.245703              -1               2 # C_R C_R O_R Zn4+2

Improper Coeffs

    1        2.000000        1.000000       -1.000000        0.000000               0 # C_R C_R H_ C_R

Pair Coeffs

    1        0.124000        2.461553 # Zn4+2 Zn4+2
    2        0.044000        2.571134 # H_ H_
    3        0.105000        3.430851 # C_R C_R
    4        0.060000        3.118146 # O_R O_R
    5        0.060000        3.118146 # O_3_z O_3_z

Atoms

       1      444        1     1.04903    1.61183    6.25590    5.91337
       2      444        1     1.04903   13.14585    6.25590    5.91337
       3      444        1     1.04903    1.61168   10.29309   10.63797
       4      444        1     1.04903   13.14570   10.29309   10.63797
       5      444        1     1.04903    1.61159   10.63727    6.25699
       6      444        1     1.04903   13.14561   10.63727    6.25699
       7      444        1     1.04903    1.61190    5.91169   10.29468
       8      444        1     1.04903   13.14592    5.91169   10.29468
       9      444        1     1.04903    4.15530    2.01640   14.18920
      10      444        1     1.04903   15.68930    2.01640   14.18920
      11      444        1     1.04903    4.15470   14.53238    2.36263
      12      444        1     1.04903   15.68870   14.53238    2.36263
      13      444        1     1.04903    4.15474   14.18696   14.53332
      14      444        1     1.04903   15.68877   14.18696   14.53332
      15      444        1     1.04903    4.15501    2.36190    2.01868
      16      444        1     1.04903   15.68901    2.36188    2.01868
      17      444        1     1.04903    9.92186   10.29307   10.63847
      18      444        1     1.04903   21.45588   10.29307   10.63847
      19      444        1     1.04903    9.92201    6.25585    5.91237
      20      444        1     1.04903   21.45603    6.25585    5.91237
      21      444        1     1.04903    9.92210    5.91167   10.29485
      22      444        1     1.04903   21.45612    5.91167   10.29485
      23      444        1     1.04903    9.92179   10.63728    6.25715
      24      444        1     1.04903   21.45582   10.63728    6.25715
      25      444        1     1.04903    7.37839   14.53253    2.36197
      26      444        1     1.04903   18.91241   14.53253    2.36197
      27      444        1     1.04903    7.37898    2.01655   14.18920
      28      444        1     1.04903   18.91301    2.01655   14.18920
      29      444        1     1.04903    7.37897    2.36198    2.01852
      30      444        1     1.04903   18.91299    2.36198    2.01852
      31      444        1     1.04903    7.37870   14.18707   14.53315
      32      444        1     1.04903   18.91273   14.18706   14.53315
      33      444        2     0.09901    2.14501    2.57377    4.06087
      34      444        2     0.09901   13.67903    2.57377    4.06087
      35      444        2     0.09901    2.14362   13.97456   12.49130
      36      444        2     0.09901   13.67765   13.97457   12.49130
      37      444        2     0.09901    2.14385   12.48761    2.57450
      38      444        2     0.09901   13.67787   12.48763    2.57450
      39      444        2     0.09901    2.14494    4.06159   13.97767
      40      444        2     0.09901   13.67896    4.06159   13.97767
      41      444        2     0.09901    3.62225    5.69958   12.33869
      42      444        2     0.09901   15.15627    5.69958   12.33869
      43      444        2     0.09901    3.62232   10.84956    4.21331
      44      444        2     0.09901   15.15634   10.84954    4.21331
      45      444        2     0.09901    3.62217   12.33651   10.85083
      46      444        2     0.09901   15.15617   12.33649   10.85083
      47      444        2     0.09901    3.62257    4.21248    5.70084
      48      444        2     0.09901   15.15660    4.21248    5.70084
      49      444        2     0.09901    9.38864   13.97520   12.49097
      50      444        2     0.09901   20.92264   13.97520   12.49097
      51      444        2     0.09901    9.39002    2.57433    4.06054
      52      444        2     0.09901   20.92404    2.57433    4.06054
      53      444        2     0.09901    9.38986    4.06130   13.97734
      54      444        2     0.09901   20.92389    4.06130   13.97734
      55      444        2     0.09901    9.38879   12.48738    2.57384
      56      444        2     0.09901   20.92279   12.48738    2.57417
      57      444        2     0.09901    7.91142   10.84942    4.21315
      58      444        2     0.09901   19.44544   10.84942    4.21315
      59      444        2     0.09901    7.91135    5.69946   12.33869
      60      444        2     0.09901   19.44537    5.69946   12.33869
      61      444        2     0.09901    7.91158    4.21268    5.70101
      62      444        2     0.09901   19.44561    4.21266    5.70101
      63      444        2     0.09901    7.91118   12.33646   10.85083
      64      444        2     0.09901   19.44518   12.33644   10.84984
      65      444        2     0.43632   -0.00012    8.05743    6.65721
      66      444        2     0.43632   11.53390    8.05743    6.65721
      67      444        2     0.09901   -0.00049   15.56517    2.90504
      68      444        2     0.09901   11.53351   15.56517    2.90504
      69      444        2     0.43632   23.06778    8.49153    9.89379
      70      444        2     0.43632   11.53381    8.49153    9.89379
      71      444        2     0.09901   23.06818    0.98375   13.64679
      72      444        2     0.09901   11.53418    0.98375   13.64679
      73      444        2     0.43632   23.06775    9.89238    8.05867
      74      444        2     0.43632   11.53377    9.89238    8.05867
      75      444        2     0.09901   23.06775   13.64192   15.56583
      76      444        2     0.09901   11.53377   13.64193   15.56583
      77      444        2     0.43632   -0.00008    6.65658    8.49283
      78      444        2     0.43632   11.53394    6.65658    8.49283
      79      444        2     0.09901   -0.00008    2.90702    0.98600
      80      444        2     0.09901   11.53394    2.90702    0.98600
      81      444        2     0.43632    5.76725    0.21468   14.93355
      82      444        2     0.43632   17.30128    0.21468   14.93355
      83      444        2     0.09901    5.76692    9.26078   11.18369
      84      444        2     0.09901   17.30094    9.26078   11.18369
      85      444        2     0.43632    5.76643   16.33428    1.61829
      86      444        2     0.43632   17.30046   16.33428    1.61829
      87      444        2     0.09901    5.76679    7.28822    5.36814
      88      444        2     0.09901   17.30079    7.28822    5.36814
      89      444        2     0.43632    5.76672   14.93150   16.33500
      90      444        2     0.43632   17.30074   14.93149   16.33500
      91      444        2     0.09901    5.76669   11.17929    7.28950
      92      444        2     0.09901   17.30071   11.17924    7.28950
      93      444        2     0.43632    5.76697    1.61745    0.21683
      94      444        2     0.43632   17.30099    1.61745    0.21683
      95      444        2     0.09901    5.76697    5.37014    9.26084
      96      444        2     0.09901   17.30100    5.37012    9.26084
      97      444        3     0.03512    1.21047    2.04515    3.88475
      98      444        3     0.03512   12.74449    2.04513    3.88475
      99      444        3    -0.17355    1.21415    0.71775    3.43884
     100      444        3    -0.17355   12.74815    0.71775    3.43884
     101      444        3     0.70851    2.50023    0.02254    3.14058
     102      444        3     0.70851   14.03426    0.02254    3.14058
     103      444        3     0.03512    1.20922   14.50348   12.66691
     104      444        3     0.03512   12.74324   14.50348   12.66691
     105      444        3    -0.17355    1.21321   15.83088   13.11316
     106      444        3    -0.17355   12.74724   15.83089   13.11316
     107      444        3     0.70851    2.49949   16.52599   13.41109
     108      444        3     0.70851   14.03349   16.52599   13.41109
     109      444        3     0.03512    1.20944   12.66346    2.04566
     110      444        3     0.03512   12.74344   12.66346    2.04566
     111      444        3    -0.17355    1.21330   13.11049    0.71852
     112      444        3    -0.17355   12.74732   13.11049    0.71852
     113      444        3     0.70851    2.49941   13.40985    0.02317
     114      444        3     0.70851   14.03343   13.40985    0.02317
     115      444        3     0.03512    1.21045    3.88556   14.50617
     116      444        3     0.03512   12.74447    3.88556   14.50617
     117      444        3    -0.17355    1.21423    3.43852   15.83348
     118      444        3    -0.17355   12.74825    3.43850   15.83348
     119      444        3     0.70851    2.50029    3.13921   16.52717
     120      444        3     0.70851   14.03431    3.13924   16.52717
     121      444        3     0.03512    4.55676    6.22835   12.16324
     122      444        3     0.03512   16.09078    6.22833   12.16324
     123      444        3    -0.17355    4.55294    7.55581   11.71700
     124      444        3    -0.17355   16.08696    7.55581   11.71700
     125      444        3     0.70851    3.26678    8.25083   11.41823
     126      444        3     0.70851   14.80080    8.25083   11.41823
     127      444        3     0.03512    4.55682   10.32070    4.38860
     128      444        3     0.03512   16.09082   10.32070    4.38860
     129      444        3    -0.17355    4.55296    8.99326    4.83484
     130      444        3    -0.17355   16.08698    8.99326    4.83484
     131      444        3     0.70851    3.26687    8.29835    5.13426
     132      444        3     0.70851   14.80087    8.29835    5.13426
     133      444        3     0.03512    4.55661   12.16058   10.32216
     134      444        3     0.03512   16.09063   12.16054   10.32216
     135      444        3    -0.17355    4.55279   11.71380    8.99485
     136      444        3    -0.17355   16.08679   11.71378    8.99485
     137      444        3     0.70851    3.26657   11.41621    8.29917
     138      444        3     0.70851   14.80061   11.41611    8.29917
     139      444        3     0.03512    4.55699    4.38849    6.22968
     140      444        3     0.03512   16.09102    4.38849    6.22968
     141      444        3    -0.17355    4.55312    4.83537    7.55682
     142      444        3    -0.17355   16.08715    4.83537    7.55682
     143      444        3     0.70851    3.26695    5.13311    8.25216
     144      444        3     0.70851   14.80097    5.13314    8.25216
     145      444        3     0.03512   10.32318   14.50381   12.66675
     146      444        3     0.03512   21.85720   14.50381   12.66675
     147      444        3    -0.17355   10.31952   15.83121   13.11299
     148      444        3    -0.17355   21.85354   15.83121   13.11299
     149      444        3     0.70851    9.03345   16.52643   13.41126
     150      444        3     0.70851   20.56748   16.52643   13.41126
     151      444        3     0.03512   10.32443    2.04543    3.88509
     152      444        3     0.03512   21.85845    2.04543    3.88509
     153      444        3    -0.17355   10.32045    0.71803    3.43868
     154      444        3    -0.17355   21.85447    0.71803    3.43868
     155      444        3     0.70851    9.03420    0.02292    3.14074
     156      444        3     0.70851   20.56820    0.02292    3.14074
     157      444        3     0.03512   10.32429    3.88546   14.50617
     158      444        3     0.03512   21.85832    3.88546   14.50617
     159      444        3    -0.17355   10.32039    3.43845   15.83331
     160      444        3    -0.17355   21.85441    3.43845   15.83331
     161      444        3     0.70851    9.03430    3.13908   16.52816
     162      444        3     0.70851   20.56830    3.13908   16.52816
     163      444        3     0.03512   10.32326   12.66339    2.04417
     164      444        3     0.03512   21.85728   12.66339    2.04417
     165      444        3    -0.17355   10.31949   13.11044    0.71836
     166      444        3    -0.17355   21.85351   13.11044    0.71836
     167      444        3     0.70851    9.03340   13.40970    0.02317
     168      444        3     0.70851   20.56742   13.40970    0.02317
     169      444        3     0.03512    6.97691   10.32065    4.38860
     170      444        3     0.03512   18.51093   10.32065    4.38860
     171      444        3    -0.17355    6.98075    8.99321    4.83484
     172      444        3    -0.17355   18.51475    8.99320    4.83484
     173      444        3     0.70851    8.26696    8.29814    5.13344
     174      444        3     0.70851   19.80096    8.29814    5.13344
     175      444        3     0.03512    6.97687    6.22830   12.16324
     176      444        3     0.03512   18.51089    6.22830   12.16324
     177      444        3    -0.17355    6.98073    7.55574   11.71700
     178      444        3    -0.17355   18.51476    7.55574   11.71700
     179      444        3     0.70851    8.26686    8.25064   11.41773
     180      444        3     0.70851   19.80086    8.25064   11.41773
     181      444        3     0.03512    6.97713    4.38861    6.22968
     182      444        3     0.03512   18.51115    4.38861    6.22968
     183      444        3    -0.17355    6.98092    4.83542    7.55682
     184      444        3    -0.17355   18.51494    4.83542    7.55682
     185      444        3     0.70851    8.26705    5.13331    8.25216
     186      444        3     0.70851   19.80107    5.13328    8.25216
     187      444        3     0.03512    6.97676   12.16059   10.32216
     188      444        3     0.03512   18.51076   12.16058   10.32216
     189      444        3    -0.17355    6.98059   11.71383    8.99485
     190      444        3    -0.17355   18.51461   11.71380    8.99485
     191      444        3     0.70851    8.26672   11.41573    8.29967
     192      444        3     0.70851   19.80074   11.41576    8.29967
     193      444        3    -0.17355    0.00051    2.70710    4.12095
     194      444        3    -0.17355   11.53453    2.70710    4.12095
     195      444        3     0.03512    0.00022    0.04910    3.23757
     196      444        3     0.03512   11.53424    0.04908    3.23757
     197      444        3     0.70851    0.00065    4.11720    4.63208
     198      444        3     0.70851   11.53468    4.11720    4.63208
     199      444        3    -0.17355   23.06711   13.84182   12.43088
     200      444        3    -0.17355   11.53313   13.84182   12.43088
     201      444        3     0.03512   23.06743   16.49984   13.31426
     202      444        3     0.03512   11.53345   16.49984   13.31426
     203      444        3     0.70851   23.06694   12.43176   11.91976
     204      444        3     0.70851   11.53297   12.43176   11.91976
     205      444        3    -0.17355   23.06731   12.42755    2.70741
     206      444        3    -0.17355   11.53334   12.42755    2.70741
     207      444        3     0.03512   23.06742   13.31167    0.04966
     208      444        3     0.03512   11.53342   13.31167    0.04966
     209      444        3     0.70851   23.06729   11.91786    4.11797
     210      444        3     0.70851   11.53331   11.91787    4.11797
     211      444        3    -0.17355    0.00040    4.12139   13.84442
     212      444        3    -0.17355   11.53440    4.12139   13.84442
     213      444        3     0.03512    0.00027    3.23727   16.50201
     214      444        3     0.03512   11.53429    3.23727   16.50201
     215      444        3     0.70851    0.00042    4.63113   12.43386
     216      444        3     0.70851   11.53445    4.63110   12.43386
     217      444        3    -0.17355    5.76681    5.56644   12.39745
     218      444        3    -0.17355   17.30081    5.56644   12.39745
     219      444        3     0.03512    5.76687    8.22466   11.51622
     220      444        3     0.03512   17.30087    8.22466   11.51622
     221      444        3     0.70851    5.76678    4.15568   12.90857
     222      444        3     0.70851   17.30080    4.15568   12.90857
     223      444        3    -0.17355    5.76687   10.98256    4.15290
     224      444        3    -0.17355   17.30090   10.98256    4.15290
     225      444        3     0.03512    5.76684    8.32436    5.03561
     226      444        3     0.03512   17.30084    8.32434    5.03561
     227      444        3     0.70851    5.76688   12.39336    3.64310
     228      444        3     0.70851   17.30091   12.39336    3.64359
     229      444        3    -0.17355    5.76669   12.39633   10.98391
     230      444        3    -0.17355   17.30069   12.39632   10.98391
     231      444        3     0.03512    5.76670   11.51255    8.32615
     232      444        3     0.03512   17.30070   11.51252    8.32615
     233      444        3     0.70851    5.76665   12.90550   12.39463
     234      444        3     0.70851   17.30065   12.90553   12.39463
     235      444        3    -0.17355    5.76709    4.15279    5.56793
     236      444        3    -0.17355   17.30109    4.15279    5.56793
     237      444        3     0.03512    5.76701    5.03677    8.22552
     238      444        3     0.03512   17.30104    5.03675    8.22552
     239      444        3     0.70851    5.76715    3.64332    4.15720
     240      444        3     0.70851   17.30118    3.64334    4.15720
     241      444        4    -0.60088    1.13879    4.65816    4.82838
     242      444        4    -0.60088   12.67281    4.65816    4.82838
     243      444        4    -0.60088    3.58108    0.67376    2.98648
     244      444        4    -0.60088   15.11510    0.67376    2.98648
     245      444        4    -0.60088    2.47153   15.29568    3.04176
     246      444        4    -0.60088   14.00556   15.29568    3.04176
     247      444        4    -0.60088    1.13693   11.89053   11.72345
     248      444        4    -0.60088   12.67097   11.89053   11.72345
     249      444        4    -0.60088    3.58025   15.87467   13.56519
     250      444        4    -0.60088   15.11427   15.87467   13.56519
     251      444        4    -0.60088    2.47211    1.25283   13.50974
     252      444        4    -0.60088   14.00611    1.25283   13.50974
     253      444        4    -0.60088    1.13736   11.72178    4.65922
     254      444        4    -0.60088   12.67139   11.72178    4.65922
     255      444        4    -0.60088    3.57995   13.56460    0.67516
     256      444        4    -0.60088   15.11397   13.56460    0.67516
     257      444        4    -0.60088    2.47169   13.50705   15.29653
     258      444        4    -0.60088   14.00572   13.50707   15.29653
     259      444        4    -0.60088    1.13851    4.82711   11.89261
     260      444        4    -0.60088   12.67251    4.82713   11.89261
     261      444        4    -0.60088    3.58081    2.98417   15.87684
     262      444        4    -0.60088   15.11483    2.98416   15.87684
     263      444        4    -0.60088    2.47191    3.04180    1.25464
     264      444        4    -0.60088   14.00593    3.04180    1.25464
     265      444        4    -0.60088    4.62870    3.61461   13.10488
     266      444        4    -0.60088   16.16272    3.61463   13.10488
     267      444        4    -0.60088    2.18629    7.59936   11.26198
     268      444        4    -0.60088   13.72032    7.59936   11.26281
     269      444        4    -0.60088    3.29483    9.52979   11.31809
     270      444        4    -0.60088   14.82885    9.52979   11.31660
     271      444        4    -0.60088    4.62880   12.93431    3.44679
     272      444        4    -0.60088   16.16283   12.93430    3.44679
     273      444        4    -0.60088    2.18619    8.94978    5.28836
     274      444        4    -0.60088   13.72021    8.94978    5.28869
     275      444        4    -0.60088    3.29481    7.01934    5.23358
     276      444        4    -0.60088   14.82883    7.01934    5.23358
     277      444        4    -0.60088    4.62852   13.10316   12.93506
     278      444        4    -0.60088   16.16252   13.10314   12.93506
     279      444        4    -0.60088    2.18596   11.26106    8.95099
     280      444        4    -0.60088   13.71996   11.26109    8.95099
     281      444        4    -0.60088    3.29485   11.31602    7.02053
     282      444        4    -0.60088   14.82885   11.31605    7.02053
     283      444        4    -0.60088    4.62907    3.44580    3.61661
     284      444        4    -0.60088   16.16309    3.44580    3.61661
     285      444        4    -0.60088    2.18622    5.28780    7.60084
     286      444        4    -0.60088   13.72024    5.28778    7.60084
     287      444        4    -0.60088    3.29522    5.23296    9.53114
     288      444        4    -0.60088   14.82922    5.23294    9.53114
     289      444        4    -0.60088   10.39481   11.89079   11.72345
     290      444        4    -0.60088   21.92883   11.89079   11.72345
     291      444        4    -0.60088    7.95258   15.87523   13.56536
     292      444        4    -0.60088   19.48661   15.87523   13.56536
     293      444        4    -0.60088    9.06216    1.25329   13.50991
     294      444        4    -0.60088   20.59616    1.25329   13.50991
     295      444        4    -0.60088   10.39667    4.65839    4.82838
     296      444        4    -0.60088   21.93069    4.65839    4.82838
     297      444        4    -0.60088    7.95344    0.67424    2.98598
     298      444        4    -0.60088   19.48744    0.67424    2.98648
     299      444        4    -0.60088    9.06158   15.29608    3.04143
     300      444        4    -0.60088   20.59560   15.29610    3.04143
     301      444        4    -0.60088   10.39637    4.82716   11.89261
     302      444        4    -0.60088   21.93039    4.82714   11.89261
     303      444        4    -0.60088    7.95374    2.98436   15.87668
     304      444        4    -0.60088   19.48777    2.98436   15.87668
     305      444        4    -0.60088    9.06199    3.04187    1.25514
     306      444        4    -0.60088   20.59602    3.04187    1.25514
     307      444        4    -0.60088   10.39524   11.72179    4.65922
     308      444        4    -0.60088   21.92924   11.72181    4.65922
     309      444        4    -0.60088    7.95290   13.56478    0.67499
     310      444        4    -0.60088   19.48692   13.56478    0.67499
     311      444        4    -0.60088    9.06181   13.50717   15.29570
     312      444        4    -0.60088   20.59581   13.50715   15.29636
     313      444        4    -0.60088    6.90497   12.93431    3.44679
     314      444        4    -0.60088   18.43899   12.93431    3.44679
     315      444        4    -0.60088    9.34739    8.94961    5.28903
     316      444        4    -0.60088   20.88142    8.94961    5.28903
     317      444        4    -0.60088    8.23881    7.01919    5.23391
     318      444        4    -0.60088   19.77284    7.01919    5.23391
     319      444        4    -0.60088    6.90484    3.61463   13.10488
     320      444        4    -0.60088   18.43886    3.61463   13.10488
     321      444        4    -0.60088    9.34748    7.59916   11.26314
     322      444        4    -0.60088   20.88148    7.59916   11.26314
     323      444        4    -0.60088    8.23885    9.52961   11.31809
     324      444        4    -0.60088   19.77288    9.52961   11.31809
     325      444        4    -0.60088    6.90530    3.44590    3.61661
     326      444        4    -0.60088   18.43930    3.44590    3.61661
     327      444        4    -0.60088    9.34782    5.28777    7.60068
     328      444        4    -0.60088   20.88184    5.28778    7.60068
     329      444        4    -0.60088    8.23888    5.23281    9.53064
     330      444        4    -0.60088   19.77288    5.23282    9.53064
     331      444        4    -0.60088    6.90476   13.10324   12.93506
     332      444        4    -0.60088   18.43876   13.10322   12.93506
     333      444        4    -0.60088    9.34747   11.26124    8.95082
     334      444        4    -0.60088   20.88149   11.26122    8.95082
     335      444        4    -0.60088    8.23853   11.31620    7.02053
     336      444        4    -0.60088   19.77253   11.31616    7.02053
     337      444        5    -0.93641   -0.00008    7.06285    6.67046
     338      444        5    -0.93641   11.53394    7.06285    6.67046
     339      444        5    -0.93641   23.06775    9.48611    9.88138
     340      444        5    -0.93641   11.53377    9.48611    9.88138
     341      444        5    -0.93641   23.06771    9.88015    7.06406
     342      444        5    -0.93641   11.53373    9.88014    7.06406
     343      444        5    -0.93641   -0.00004    6.66880    9.48777
     344      444        5    -0.93641   11.53398    6.66880    9.48777
     345      444        5    -0.93641    5.76717    1.20923   14.94629
     346      444        5    -0.93641   17.30120    1.20923   14.94629
     347      444        5    -0.93641    5.76649   15.33974    1.48968
     348      444        5    -0.93641   17.30051   15.33974    1.48968
     349      444        5    -0.93641    5.76670   14.94378   15.34039
     350      444        5    -0.93641   17.30070   14.94378   15.34039
     351      444        5    -0.93641    5.76701    1.60516    1.21144
     352      444        5    -0.93641   17.30103    1.60516    1.21144
     353      444        1     1.04903    1.61212    6.25272   22.46537
     354      444        1     1.04903   13.14614    6.25272   22.46537
     355      444        1     1.04903    1.61197   10.28991   27.18997
     356      444        1     1.04903   13.14599   10.28991   27.18997
     357      444        1     1.04903    1.61188   10.63409   22.80899
     358      444        1     1.04903   13.14590   10.63409   22.80899
     359      444        1     1.04903    1.61218    5.90851   26.84668
     360      444        1     1.04903   13.14621    5.90851   26.84668
     361      444        1     1.04903    4.15559    2.01323   30.74120
     362      444        1     1.04903   15.68959    2.01323   30.74120
     363      444        1     1.04903    4.15499   14.52921   18.91463
     364      444        1     1.04903   15.68899   14.52921   18.91463
     365      444        1     1.04903    4.15503   14.18378   31.08532
     366      444        1     1.04903   15.68906   14.18378   31.08532
     367      444        1     1.04903    4.15530    2.35872   18.57068
     368      444        1     1.04903   15.68930    2.35870   18.57068
     369      444        1     1.04903    9.92215   10.28989   27.19047
     370      444        1     1.04903   21.45617   10.28989   27.19047
     371      444        1     1.04903    9.92230    6.25267   22.46437
     372      444        1     1.04903   21.45632    6.25267   22.46437
     373      444        1     1.04903    9.92239    5.90849   26.84685
     374      444        1     1.04903   21.45641    5.90849   26.84685
     375      444        1     1.04903    9.92208   10.63410   22.80915
     376      444        1     1.04903   21.45610   10.63410   22.80915
     377      444        1     1.04903    7.37868   14.52936   18.91397
     378      444        1     1.04903   18.91270   14.52936   18.91397
     379      444        1     1.04903    7.37927    2.01338   30.74120
     380      444        1     1.04903   18.91330    2.01338   30.74120