Created on Tue Feb 06 15:03:31 2018 

        3008 atoms
        3264 bonds
        5504 angles
        7168 dihedrals
        4224 impropers

           7 atom types
          11 bond types
          20 angle types
           6 dihedral types
           1 improper types
           0.000000  26.000000 xlo xhi
           0.000000  36.685915 ylo yhi
           0.000000  37.263159 zlo zhi
          -0.078756  -4.223885  -0.125575 xy xz yz

Masses

    1    65.380000000 # Zn3+2
    2     1.007940000 # H_
    3    12.010700000 # C_R
    4    12.010700000 # C_3
    5    12.010700000 # C_2
    6    14.006700000 # N_R
    7    15.999400000 # O_R

Bond Coeffs

    1      165.837318        1.881712  # Zn3+2 N_R
    2      160.291409        1.840266  # Zn3+2 O_R
    3      331.069389        1.109401  # H_ C_3
    4      357.440381        1.081418  # H_ C_R
    5      354.483902        1.084416  # H_ C_2
    6      646.680887        1.311940  # C_R O_R
    7      369.943935        1.486000  # C_R C_3
    8      462.655054        1.379256  # C_R C_R
    9      663.718927        1.345073  # C_R N_R
   10      389.261715        1.461000  # C_R C_2
   11      517.346067        1.328833  # C_2 C_2

Angle Coeffs

    1                      fourier       50.968023        0.343737        0.374972        0.281246 # O_R Zn3+2 O_R
    2                      fourier       55.784590        0.343737        0.374972        0.281246 # N_R Zn3+2 N_R
    3                      fourier       53.299639        0.343737        0.374972        0.281246 # O_R Zn3+2 N_R
    4              cosine/periodic      130.962624              -1               3 # O_R C_R C_3
    5              cosine/periodic      217.450257              -1               3 # O_R C_R O_R
    6                      fourier       73.868412        0.343737        0.374972        0.281246 # H_ C_3 C_R
    7                      fourier       61.342703        0.343737        0.374972        0.281246 # H_ C_3 H_
    8                      fourier      102.595193        0.343737        0.374972        0.281246 # C_R C_3 C_R
    9              cosine/periodic       96.739224              -1               3 # C_3 C_R C_R
   10              cosine/periodic      117.010657              -1               3 # C_R C_R C_R
   11              cosine/periodic       76.817955              -1               3 # C_R C_R H_
   12              cosine/periodic      109.704024              -1               3 # H_ C_R N_R
   13              cosine/periodic      165.695700              -1               3 # N_R C_R C_R
   14              cosine/periodic      101.089243              -1               3 # C_R C_R C_2
   15              cosine/periodic      110.514224              -1               3 # C_2 C_2 C_R
   16              cosine/periodic       64.722957              -1               3 # H_ C_2 C_R
   17              cosine/periodic       84.775358              -1               3 # H_ C_2 C_2
   18              cosine/periodic      132.654363              -1               3 # C_R N_R C_R
   19              cosine/periodic       36.261492              -1               3 # Zn3+2 N_R C_R
   20              cosine/periodic       50.430477              -1               3 # Zn3+2 O_R C_R

Dihedral Coeffs

    1        2.245703              -1               2 # C_3 C_R O_R Zn3+2
    2        0.083333               1               3 # O_R C_R C_3 C_R
    3        0.416667              -1               2 # C_R C_3 C_R C_R
    4        1.497136              -1               2 # C_3 C_R C_R C_3
    5        0.555556              -1               2 # C_R C_R C_2 C_2
    6        2.165197              -1               2 # C_R C_2 C_2 C_R

Improper Coeffs

    1        2.000000        1.000000       -1.000000        0.000000               0 # C_3 C_R O_R O_R

Pair Coeffs

    1        0.124000        2.461553 # Zn3+2 Zn3+2
    2        0.044000        2.571134 # H_ H_
    3        0.105000        3.430851 # C_R C_R
    4        0.105000        3.430851 # C_3 C_3
    5        0.105000        3.430851 # C_2 C_2
    6        0.069000        3.260689 # N_R N_R
    7        0.060000        3.118146 # O_R O_R

Atoms

       1      444        1     0.88085    1.00637    9.38158    5.23175
       2      444        1     0.88085    7.52535    9.38416    5.24255
       3      444        1     0.88085    1.15357    0.21208    4.08218
       4      444        1     0.88085    7.62651    0.21377    4.08628
       5      444        1     0.88085    3.31403    8.89903   13.40114
       6      444        1     0.88085    9.83816    8.89778   13.44119
       7      444        1     0.88085    3.16535   18.06233   14.54996
       8      444        1     0.88085    9.69444   18.06777   14.54567
       9      444        2     0.10942    3.67142   13.17224    5.04804
      10      444        2     0.10942   10.16734   13.19689    5.08046
      11      444        2     0.10942    2.29398   14.11542    5.65114
      12      444        2     0.10942    8.78007   14.12955    5.67462
      13      444        2     0.10942    3.94155   12.60802    2.76903
      14      444        2     0.10942   10.45036   12.62407    2.80107
      15      444        2     0.10942    3.25877   12.85642    0.39648
      16      444        2     0.10942    9.77338   12.85738    0.42573
      17      444        2     0.10942   -1.09202   13.78022   18.48048
      18      444        2     0.10942    5.41835   13.76515   18.49799
      19      444        2     0.10942    6.02597   14.56165    1.69920
      20      444        2     0.10942   12.52595   14.57756    1.69007
      21      444        2     0.10942    5.40757   14.51247    3.96815
      22      444        2     0.10942   11.91199   14.51323    3.96126
      23      444        2     0.10942   -0.03273   13.86272    5.23939
      24      444        2     0.10942    6.45895   13.86422    5.25150
      25      444        2     0.10942    4.78916    8.35859    4.51350
      26      444        2     0.10942   11.27110    8.36996    4.49058
      27      444        2     0.10942    3.29738    8.28686    2.57339
      28      444        2     0.10942    9.78685    8.29830    2.54694
      29      444        2     0.10942    6.14573   10.82777    0.49653
      30      444        2     0.10942   12.64510   10.83184    0.47548
      31      444        2     0.10942    1.02425   10.80238    2.55458
      32      444        2     0.10942    7.53089   10.79994    2.57283
      33      444        2     0.10942    2.08443   10.05152   17.91277
      34      444        2     0.10942    8.58302   10.05959   17.88501
      35      444        2     0.10942    5.46174   11.20405    6.44205
      36      444        2     0.10942   11.96752   11.20354    6.45715
      37      444        2     0.10942    3.43739   10.99934    7.85787
      38      444        2     0.10942    9.95338   11.00104    7.88768
      39      444        2     0.10942    4.57640    6.88824    8.60462
      40      444        2     0.10942   11.07258    6.87763    8.59587
      41      444        2     0.10942    0.01408    7.23921    7.07050
      42      444        2     0.10942    6.53037    7.25212    7.09491
      43      444        2     0.10942    2.69108    7.77478    9.81698
      44      444        2     0.10942    9.19821    7.77092    9.83077
      45      444        2     0.10942    4.98041    4.00887    4.27744
      46      444        2     0.10942   11.46881    3.98493    4.28470
      47      444        2     0.10942   -0.16742    4.94255    3.67266
      48      444        2     0.10942    6.35570    4.95220    3.66837
      49      444        2     0.10942    4.72497    3.43242    6.55478
      50      444        2     0.10942   11.21549    3.42811    6.56558
      51      444        2     0.10942    5.41885    3.67280    8.92453
      52      444        2     0.10942   11.91412    3.67992    8.93310
      53      444        2     0.10942    1.15385    4.67476    9.46447
      54      444        2     0.10942    7.65767    4.66590    9.46503
      55      444        2     0.10942    2.63192    5.41305    7.61212
      56      444        2     0.10942    9.13828    5.41415    7.61938
      57      444        2     0.10942    3.22995    5.34902    5.33608
      58      444        2     0.10942    9.74213    5.35430    5.34186
      59      444        2     0.10942    2.16648    4.69807    4.06522
      60      444        2     0.10942    8.67422    4.72504    4.06411
      61      444        2     0.10942    3.85727   17.53637    4.80508
      62      444        2     0.10942   10.33235   17.54007    4.80695
      63      444        2     0.10942    5.34386   17.44261    6.74966
      64      444        2     0.10942   11.82367   17.44961    6.74612
      65      444        2     0.10942    2.53123    1.61834    8.84683
      66      444        2     0.10942    9.02014    1.63670    8.84255
      67      444        2     0.10942    1.14976    1.61208    6.76923
      68      444        2     0.10942    7.63460    1.62763    6.76848
      69      444        2     0.10942    4.47405    0.89298   10.06087
      70      444        2     0.10942   10.96048    0.90732   10.05658
      71      444        2     0.10942    3.18186    2.04971    2.86572
      72      444        2     0.10942    9.66215    2.04121    2.87131
      73      444        2     0.10942    5.20190    1.86158    1.44041
      74      444        2     0.10942   11.68840    1.84372    1.45513
      75      444        2     0.10942    4.06750   16.07775    0.71732
      76      444        2     0.10942   10.54019   16.06312    0.73241
      77      444        2     0.10942    2.11731   16.42557    2.23616
      78      444        2     0.10942    8.58640   16.41994    2.24306
      79      444        2     0.10942    3.82430   16.92090   18.12163
      80      444        2     0.10942   10.30531   16.90012   18.14082
      81      444        2     0.10942    0.65344    5.10992   13.58820
      82      444        2     0.10942    7.17313    5.10337   13.58149
      83      444        2     0.10942    2.02476    4.16498   12.97410
      84      444        2     0.10942    8.55177    4.16114   12.97950
      85      444        2     0.10942    0.40120    5.67538   15.86833
      86      444        2     0.10942    6.89801    5.66142   15.86181
      87      444        2     0.10942    1.09953    5.42679   18.23622
      88      444        2     0.10942    7.58048    5.41283   18.22168
      89      444        2     0.10942    5.46709    4.49738    0.00000
      90      444        2     0.10942   11.94896    4.49344    0.00000
      91      444        2     0.10942   -1.68266    3.70172   16.94337
      92      444        2     0.10942    4.81742    3.69172   16.91785
      93      444        2     0.10942   -1.06717    3.76752   14.67293
      94      444        2     0.10942    5.41543    3.75627   14.63771
      95      444        2     0.10942    4.34345    4.38668   13.36425
      96      444        2     0.10942   10.87806    4.41833   13.39443
      97      444        2     0.10942   -0.43902    9.91378   14.16932
      98      444        2     0.10942    6.04368    9.93020   14.14081
      99      444        2     0.10942    1.04974    9.98835   16.10980
     100      444        2     0.10942    7.53547   10.00514   16.08054
     101      444        2     0.10942   -1.79624    7.44202   18.18442
     102      444        2     0.10942    4.69619    7.45237   18.15480
     103      444        2     0.10942    3.31017    7.47846   16.08054
     104      444        2     0.10942    9.81945    7.46912   16.10830
     105      444        2     0.10942    2.26171    8.22069    0.77172
     106      444        2     0.10942    8.75388    8.23333    0.74079
     107      444        2     0.10942   -1.11850    7.07430   12.20778
     108      444        2     0.10942    5.37274    7.07964   12.20722
     109      444        2     0.10942    0.88849    7.27689   10.76775
     110      444        2     0.10942    7.40007    7.28351   10.79458
     111      444        2     0.10942   -0.23421   11.39991   10.06478
     112      444        2     0.10942    6.26372   11.39489   10.04540
     113      444        2     0.10942    4.30857   11.03280   11.55363
     114      444        2     0.10942   10.82859   11.03664   11.59425
     115      444        2     0.10942    1.63926   10.50929    8.82671
     116      444        2     0.10942    8.15134   10.50622    8.83565
     117      444        2     0.10942   -0.64424   14.28635   14.36122
     118      444        2     0.10942    5.85043   14.28556   14.35619
     119      444        2     0.10942    4.47958   13.33321   14.96041
     120      444        2     0.10942   10.98618   13.33455   14.97159
     121      444        2     0.10942   -0.38552   14.84365   12.07978
     122      444        2     0.10942    6.11575   14.84767   12.07736
     123      444        2     0.10942   -1.07907   14.59056    9.71097
     124      444        2     0.10942    5.42780   14.60286    9.70612
     125      444        2     0.10942    3.18841   13.61333    9.16189
     126      444        2     0.10942    9.68184   13.59546    9.17531
     127      444        2     0.10942    1.70083   12.87324   11.00549
     128      444        2     0.10942    8.20021   12.85846   11.02468
     129      444        2     0.10942    1.09262   12.92884   13.27742
     130      444        2     0.10942    7.59943   12.91418   13.29736
     131      444        2     0.10942    2.14766   13.58212   14.55424
     132      444        2     0.10942    8.65484   13.57715   14.57064
     133      444        2     0.10942    0.45929    0.72431   13.81886
     134      444        2     0.10942    6.99296    0.73523   13.81234
     135      444        2     0.10942   -1.01650    0.81957   11.87037
     136      444        2     0.10942    5.50674    0.81665   11.87037
     137      444        2     0.10942    1.80836   16.64795    9.78326
     138      444        2     0.10942    8.33122   16.64782    9.77990
     139      444        2     0.10942    3.18063   16.65619   11.86701
     140      444        2     0.10942    9.71012   16.66367   11.85881
     141      444        2     0.10942   -0.13510   17.37088    8.55935
     142      444        2     0.10942    6.38444   17.36550    8.56065
     143      444        2     0.10942    1.13427   16.22334   15.76846
     144      444        2     0.10942    7.65327   16.24098   15.75449
     145      444        2     0.10942   -0.88426   16.41320   17.19508
     146      444        2     0.10942    5.62827   16.43628   17.17180
     147      444        2     0.10942    0.25178    2.19719   17.91445
     148      444        2     0.10942    6.77746    2.21537   17.90159
     149      444        2     0.10942    2.20109    1.84719   16.39467
     150      444        2     0.10942    8.72992    1.86110   16.38834
     151      444        2     0.10942    0.49410    1.35630    0.51032
     152      444        2     0.10942    7.01200    1.37724    0.49187
     153      444        3     0.72907    1.99426   11.98756    5.63493
     154      444        3     0.72907    8.49793   11.99850    5.65860
     155      444        4    -0.35953    2.57511   13.26908    5.01245
     156      444        4    -0.35953    9.07033   13.28488    5.03798
     157      444        3     0.10023    2.13956   13.46840    3.57782
     158      444        3     0.10023    8.64097   13.47772    3.60093
     159      444        3    -0.14759    2.97504   13.05475    2.52868
     160      444        3    -0.14759    9.48221   13.06469    2.55607
     161      444        3    -0.14759    2.59043   13.18682    1.19298
     162      444        3    -0.14759    9.10054   13.18756    1.21869
     163      444        3    -0.14759    1.34222   13.73695    0.88612
     164      444        3    -0.14759    7.85008   13.72876    0.90512
     165      444        3    -0.14759    0.50077   14.14618    1.92185
     166      444        3    -0.14759    7.00275   14.13740    1.93638
     167      444        3     0.10023    0.87572   14.01964    3.26798
     168      444        3     0.10023    7.37518   14.02009    3.28400
     169      444        4    -0.35953   -0.05905   14.50697    4.35252
     170      444        4    -0.35953    6.43469   14.50732    4.36370
     171      444        3     0.72907    0.25284   15.94547    4.80397
     172      444        3     0.72907    6.74802   15.94592    4.81254
     173      444        3     0.18743    5.06312    8.88386    3.59925
     174      444        3     0.18743   11.54966    8.89353    3.57652
     175      444        3    -0.14759    4.22925    8.84861    2.49738
     176      444        3    -0.14759   10.71930    8.85855    2.47167
     177      444        3     0.10023    4.60217    9.53603    1.32638
     178      444        3     0.10023   11.09574    9.54375    1.30048
     179      444        3    -0.14759    5.81067   10.25997    1.36495
     180      444        3    -0.14759   12.30587   10.26518    1.34315
     181      444        3     0.18743    0.08443   10.25307    2.49328
     182      444        3     0.18743    6.59239   10.24848    2.51154
     183      444        5    -0.14759    3.80356    9.51723    0.10825
     184      444        5    -0.14759   10.29899    9.52627    0.07993
     185      444        3     0.18743    5.20852   10.26005    6.92219
     186      444        3     0.18743   11.71031   10.25721    6.93039
     187      444        3    -0.14759    4.09059   10.13884    7.72614
     188      444        3    -0.14759   10.59940   10.13719    7.74384
     189      444        3     0.10023    3.81544    8.91055    8.35962
     190      444        3     0.10023   10.32138    8.90591    8.37005
     191      444        3    -0.14759    4.72143    7.85870    8.13045
     192      444        3    -0.14759   11.21916    7.85025    8.12672
     193      444        3     0.18743    5.81489    8.04939    7.29780
     194      444        3     0.18743   -0.84304    8.03940    7.28457
     195      444        5    -0.14759    2.67520    8.70405    9.24126
     196      444        5    -0.14759    9.18375    8.70066    9.25524
     197      444        3     0.72907    0.15387    2.81790    3.68402
     198      444        3     0.72907    6.65649    2.82364    3.68495
     199      444        4    -0.35953   -0.43572    4.09257    4.31209
     200      444        4    -0.35953    6.07684    4.10557    4.30743
     201      444        3     0.10023    0.00915    4.29339    5.74374
     202      444        3     0.10023    6.51961    4.30295    5.74039
     203      444        3    -0.14759    5.69106    3.88161    6.79214
     204      444        3    -0.14759   12.18232    3.87790    6.79885
     205      444        3    -0.14759   -0.42391    4.01168    8.13175
     206      444        3    -0.14759    6.08219    4.00918    8.12635
     207      444        3    -0.14759    0.82442    4.56647    8.42967
     208      444        3    -0.14759    7.33002    4.56263    8.42911
     209      444        3    -0.14759    1.65726    4.97739    7.38779
     210      444        3    -0.14759    8.16425    4.97951    7.39077
     211      444        3     0.10023    1.27298    4.84948    6.04446
     212      444        3     0.10023    7.78257    4.85836    6.04595
     213      444        4    -0.35953    2.19774    5.34072    4.95321
     214      444        4    -0.35953    8.70972    5.35702    4.95935
     215      444        3     0.72907    1.87913    6.77916    4.50642
     216      444        3     0.72907    8.39998    6.80264    4.53157
     217      444        3     0.18743    3.58025   18.05143    5.72567
     218      444        3     0.18743   10.05895   18.05934    5.72493
     219      444        3    -0.14759    4.41204   18.00406    6.82941
     220      444        3    -0.14759   10.89332   18.01348    6.82680
     221      444        3     0.10023    4.07726    0.33534    8.00785
     222      444        3     0.10023   10.56193    0.34814    8.00450
     223      444        3    -0.14759    2.86845    1.05977    7.97320
     224      444        3    -0.14759    9.35475    1.07519    7.96966
     225      444        3     0.18743    2.08867    1.06036    6.82400
     226      444        3     0.18743    8.57261    1.07430    6.82214
     227      444        5    -0.14759    4.87296    0.30575    9.22897
     228      444        5    -0.14759   11.35760    0.31763    9.22543
     229      444        3     0.18743    3.44532    1.10637    2.39006
     230      444        3     0.18743    9.92493    1.09627    2.39863
     231      444        3    -0.14759    4.55997    0.99409    1.58052
     232      444        3    -0.14759   11.04245    0.97878    1.59393
     233      444        3     0.10023    4.80646   18.10933    0.95133
     234      444        3     0.10023   11.28630   18.09234    0.96698
     235      444        3    -0.14759    3.91343   17.04830    1.18869
     236      444        3    -0.14759   10.38849   17.03487    1.20174
     237      444        3     0.18743    2.82271   17.22981    2.02674
     238      444        3     0.18743    9.29520   17.22154    2.03531
     239      444        5    -0.14759    5.94667   17.91165    0.06801
     240      444        5    -0.14759   12.42816   17.89102    0.08682
     241      444        3     0.72907    2.33080    6.29254   12.99590
     242      444        3     0.72907    8.85166    6.28957   12.99981
     243      444        4    -0.35953    1.74970    5.01050   13.61596
     244      444        4    -0.35953    8.26948    5.00658   13.61875
     245      444        3     0.10023    2.19451    4.80810   15.04780
     246      444        3     0.10023    8.70296    4.80626   15.05394
     247      444        3    -0.14759    1.36787    5.22572   16.10234
     248      444        3    -0.14759    7.86534    5.21666   16.10253
     249      444        3    -0.14759    1.76139    5.09365   17.43543
     250      444        3    -0.14759    8.24911    5.08467   17.43860
     251      444        3    -0.14759    3.01023    4.54016   17.73391
     252      444        3    -0.14759    9.49812    4.53689   17.74658
     253      444        3    -0.14759    3.84268    4.12675   16.69259
     254      444        3    -0.14759   10.34189    4.13122   16.71066
     255      444        3     0.10023    3.45810    4.25194   15.34907
     256      444        3     0.10023    9.96765    4.25759   15.36472
     257      444        4    -0.35953    4.38154    3.75435   14.25912
     258      444        4    -0.35953   10.90432    3.77312   14.28073
     259      444        3     0.72907    4.07008    2.30842   13.83227
     260      444        3     0.72907   10.59469    2.33489   13.82724
     261      444        3     0.18743   -0.71306    9.38820   15.08413
     262      444        3     0.18743    5.77139    9.40281   15.05450
     263      444        3    -0.14759    0.11936    9.42429   16.18674
     264      444        3    -0.14759    6.60575    9.43972   16.15637
     265      444        3     0.10023   -0.25395    8.73593   17.35737
     266      444        3     0.10023    6.23679    8.74938   17.32718
     267      444        3    -0.14759   -1.46148    8.01023   17.31712
     268      444        3    -0.14759    5.02980    8.02238   17.28712
     269      444        3     0.18743    4.24732    8.03269   16.13961
     270      444        3     0.18743   10.75774    8.02122   16.16904
     271      444        5    -0.14759    0.54314    8.75495   18.57624
     272      444        5    -0.14759    7.03666    8.76718   18.54401
     273      444        3     0.18743   -0.86449    8.02058   11.73286
     274      444        3     0.18743    5.62839    8.02351   11.72821
     275      444        3    -0.14759    0.24335    8.14080   10.91494
     276      444        3    -0.14759    6.74716    8.14423   10.92556
     277      444        3     0.10023    0.51941    9.37220   10.28836
     278      444        3     0.10023    7.02359    9.37235   10.29264
     279      444        3    -0.14759   -0.37850   10.42712   10.53411
     280      444        3    -0.14759    6.11794   10.42486   10.52014
     281      444        3     0.18743   11.53753   10.23712   11.37924
     282      444        3     0.18743    5.02394   10.23522   11.35036
     283      444        5    -0.14759    1.65546    9.57898    9.40112
     284      444        5    -0.14759    8.16505    9.57733    9.41249
     285      444        3     0.72907    4.16637   15.45896   14.94868
     286      444        3     0.72907   10.66963   15.46024   14.94886
     287      444        4    -0.35953    4.75460   14.18231   14.32284
     288      444        4    -0.35953   11.26018   14.18153   14.33085
     289      444        3     0.10023    4.31675   13.98376   12.88877
     290      444        3     0.10023   10.81931   13.97820   12.89808
     291      444        3    -0.14759   -1.35176   14.39361   11.84465
     292      444        3    -0.14759    5.14921   14.40018   11.83851
     293      444        3    -0.14759    4.76154   14.26998   10.50337
     294      444        3    -0.14759   11.25729   14.25890   10.51101
     295      444        3    -0.14759    3.51355   13.71826   10.19837
     296      444        3    -0.14759   10.00939   13.70436   10.21066
     297      444        3    -0.14759    2.67540   13.30598   11.23559
     298      444        3    -0.14759    9.17453   13.29365   11.25124
     299      444        3     0.10023    3.05347   13.43014   12.58097
     300      444        3     0.10023    9.55602   13.42217   12.59495
     301      444        4    -0.35953    2.12230   12.93850   13.66682
     302      444        4    -0.35953    8.62995   12.93040   13.68545
     303      444        3     0.72907    2.43999   11.50081   14.11528
     304      444        3     0.72907    8.95798   11.49633   14.13820
     305      444        3     0.18743    0.74174    0.21065   12.90051
     306      444        3     0.18743    7.27214    0.21823   12.89492
     307      444        3    -0.14759   -0.08442    0.25826   11.79267
     308      444        3    -0.14759    6.44103    0.25946   11.79062
     309      444        3     0.10023    0.25689   17.92901   10.61534
     310      444        3     0.10023    6.77952   17.92711   10.61385
     311      444        3    -0.14759    1.46630   17.20589   10.65540
     312      444        3    -0.14759    7.99098   17.20738   10.65167
     313      444        3     0.18743    2.24097   17.20584   11.80683
     314      444        3     0.18743    8.76953   17.21226   11.80199
     315      444        5    -0.14759   -0.53399   17.96012    9.39088
     316      444        5    -0.14759    5.98478   17.95325    9.39199
     317      444        3     0.18743    0.87136   17.16713   16.24357
     318      444        3     0.18743    7.39095   17.18525   16.22885
     319      444        3    -0.14759   -0.24242   17.28037   17.05423
     320      444        3    -0.14759    6.27414   17.30140   17.03485
     321      444        3     0.10023   -0.48821    0.16596   17.68193
     322      444        3     0.10023    6.03072    0.18676   17.66404
     323      444        3    -0.14759    0.40512    1.22638   17.44363
     324      444        3    -0.14759    6.92848    1.24453   17.43022
     325      444        3     0.18743    1.49510    1.04376   16.60446
     326      444        3     0.18743    8.02102    1.05935   16.59515
     327      444        5    -0.14759   -1.62850    0.36512   18.56469
     328      444        5    -0.14759    4.88937    0.38659   18.54550
     329      444        6    -0.35309   -0.27636    9.56524    3.59962
     330      444        6    -0.35309    6.23552    9.55817    3.61825
     331      444        6    -0.35309   -0.44402    9.22746    6.68892
     332      444        6    -0.35309    6.06397    9.23483    6.69656
     333      444        6    -0.35309    2.44669    0.38234    5.71077
     334      444        6    -0.35309    8.92654    0.39241    5.71002
     335      444        6    -0.35309    2.60359    0.07192    2.62444
     336      444        6    -0.35309    9.07830    0.06522    2.63041
     337      444        6    -0.35309    4.60088    8.72454   15.03364
     338      444        6    -0.35309   11.11522    8.71249   15.06400
     339      444        6    -0.35309    4.77370    9.04966   11.95272
     340      444        6    -0.35309   11.29014    9.04964   11.97731
     341      444        6    -0.35309    1.87643   17.88217   12.92063
     342      444        6    -0.35309    8.40813   17.89171   12.91318
     343      444        6    -0.35309    1.71299   18.20123   16.00639
     344      444        6    -0.35309    8.23740   18.21659   15.99763
     345      444        7    -0.63846    1.45774   12.01123    6.75823
     346      444        7    -0.63846    7.98985   12.00969    6.78189
     347      444        7    -0.64056    2.13616   10.92998    4.88706
     348      444        7    -0.64056    8.62153   10.95054    4.89377
     349      444        7    -0.63846    0.44029   16.20835    6.00403
     350      444        7    -0.63846    6.96720   16.20650    6.00775
     351      444        7    -0.64056    0.27838   16.80451    3.82171
     352      444        7    -0.64056    6.74400   16.80862    3.83307
     353      444        7    -0.63846    0.68852    2.85036    2.55998
     354      444        7    -0.63846    7.21204    2.85126    2.57060
     355      444        7    -0.64056    0.01967    1.75679    4.42873
     356      444        7    -0.64056    6.49417    1.76227    4.42425
     357      444        7    -0.63846    1.68787    7.04453    3.30729
     358      444        7    -0.63846    8.20956    7.08796    3.33636