Created on Tue Feb 06 14:39:21 2018 

        1704 atoms
        1944 bonds
        3456 angles
        4464 dihedrals
        2088 impropers

           6 atom types
           9 bond types
          15 angle types
           6 dihedral types
           1 improper types
           0.000000  32.448000 xlo xhi
           0.000000  31.805340 ylo yhi
           0.000000  31.496503 zlo zhi
          -2.180540 -10.889453 -16.060703 xy xz yz

Masses

    1   112.411000000 # Cd3+2
    2     1.007940000 # H_
    3    12.010700000 # C_R
    4    12.010700000 # C_3
    5    15.999400000 # O_3
    6    15.999400000 # O_R

Bond Coeffs

    1      147.192711        2.045725  # Cd3+2 O_R
    2      357.440381        1.081418  # H_ C_R
    3      331.069389        1.109401  # H_ C_3
    4      462.655054        1.379256  # C_R C_R
    5      539.248552        1.393845  # C_3 O_3
    6      349.795899        1.514000  # C_3 C_3
    7      572.510195        1.366311  # C_R O_3
    8      391.669513        1.458000  # C_R C_R
    9      646.680887        1.311940  # C_R O_R

Angle Coeffs

    1                      fourier       30.023701        0.343737        0.374972        0.281246 # O_R Cd3+2 O_R
    2              cosine/periodic       76.817955              -1               3 # C_R C_R H_
    3              cosine/periodic      117.010657              -1               3 # C_R C_R C_R
    4                      fourier      107.207104        0.343737        0.374972        0.281246 # H_ C_3 O_3
    5                      fourier       69.847816        0.343737        0.374972        0.281246 # C_3 C_3 H_
    6                      fourier       61.342703        0.343737        0.374972        0.281246 # H_ C_3 H_
    7                      fourier      137.437967        0.343737        0.374972        0.281246 # O_3 C_3 C_3
    8                      fourier       93.452663        0.343737        0.374972        0.281246 # C_3 C_3 C_3
    9              cosine/periodic      144.104200              -1               3 # C_R C_R O_3
   10              cosine/periodic      101.626578              -1               3 # C_R C_R C_R
   11              cosine/periodic      217.450257              -1               3 # O_R C_R O_R
   12              cosine/periodic      137.761490              -1               3 # O_R C_R C_R
   13                      fourier      168.527890        0.300235        0.267331        0.266745 # C_3 O_3 C_R
   14              cosine/periodic       45.673393              -1               3 # Cd3+2 O_R C_R
   15              cosine/periodic       15.251616              -1               3 # Cd3+2 O_R Cd3+2

Dihedral Coeffs

    1        1.497136              -1               2 # H_ C_R C_R O_3
    2        0.128665               1               2 # H_ C_3 O_3 C_R
    3        0.066219               1               3 # H_ C_3 C_3 C_3
    4        0.833333               1               2 # C_R C_R O_3 C_3
    5        0.555556              -1               2 # C_R C_R C_R O_R
    6        2.245703              -1               2 # C_R C_R O_R Cd3+2

Improper Coeffs

    1        2.000000        1.000000       -1.000000        0.000000               0 # C_R C_R C_R H_

Pair Coeffs

    1        0.228000        2.537280 # Cd3+2 Cd3+2
    2        0.044000        2.571134 # H_ H_
    3        0.105000        3.430851 # C_R C_R
    4        0.105000        3.430851 # C_3 C_3
    5        0.060000        3.118146 # O_3 O_3
    6        0.060000        3.118146 # O_R O_R

Atoms

       1      444        1     1.15748   -3.03416    5.20699    9.03792
       2      444        1     1.07424   -0.47785    5.17340    5.79457
       3      444        1     1.15748    7.31473    2.66471    6.71143
       4      444        1     1.07424    4.75782    2.69846    9.95589
       5      444        2     0.10057    2.40309   -0.00143    9.83163
       6      444        2     0.10057    3.70324    7.61427    0.58804
       7      444        2     0.10057    1.71631   -1.68570   14.60461
       8      444        2     0.10057    2.60377   -1.97875   13.08239
       9      444        2     0.10057   -3.32827   10.19945   10.54975
      10      444        2     0.10057   -0.33602   -0.94375   13.17341
      11      444        2     0.10057   -0.95700   -2.08576   11.94174
      12      444        2     0.10057    7.79105    1.66823    2.16271
      13      444        2     0.10057   -1.59712    0.01348   11.47433
      14      444        2     0.10057    2.40085   -5.85888   15.45392
      15      444        2     0.10057    0.98770   10.32074   10.55290
      16      444        2     0.10057   -3.26424    8.37266    8.85587
      17      444        2     0.10057    8.42797    6.34951    0.58977
      18      444        2     0.10057    8.43922    5.83236    3.01485
      19      444        2     0.10057    0.14457   -4.24767   14.80493
      20      444        2     0.10057   -1.25220   -3.84114   13.76334
      21      444        2     0.10057    1.78474    1.88467    8.33397
      22      444        2     0.10057    3.73644    3.31552    0.29386
      23      444        2     0.10057    1.03298    8.52220    8.85650
      24      444        2     0.10057    2.08051    3.18479    2.14712
      25      444        2     0.10057    1.53002   -4.81128   12.67215
      26      444        2     0.10057    1.61354   -3.57445   11.37685
      27      444        2     0.10057    1.98891    7.45177    2.43326
      28      444        2     0.10057   -2.20320    1.86473    9.96549
      29      444        2     0.10057    1.87701    7.87293    5.91851
      30      444        2     0.10057    0.57694    0.25761   15.16242
      31      444        2     0.10057    2.56362    9.55751    1.14569
      32      444        2     0.10057    1.67606    9.85075    2.66775
      33      444        2     0.10057    7.60825   -2.32748    5.20007
      34      444        2     0.10057    4.61622    8.81612    2.57626
      35      444        2     0.10057    5.23689    9.95788    3.80856
      36      444        2     0.10057   -3.51000    6.20327   13.58728
      37      444        2     0.10057    5.87714    7.85862    4.27581
      38      444        2     0.10057    1.98220   13.88150    0.00000
      39      444        2     0.10057    3.30635   -2.64969    5.19629
      40      444        2     0.10057    7.54439   -0.50087    6.89427
      41      444        2     0.10057   -4.14825    1.52229   15.16037
      42      444        2     0.10057   -4.15923    2.03926   12.73530
      43      444        2     0.10057    4.13550   12.11988    0.94474
      44      444        2     0.10057    5.53205   11.71303    1.98696
      45      444        2     0.10057    2.49565    5.98675    7.41585
      46      444        2     0.10057    0.54323    4.55631   15.45612
      47      444        2     0.10057    3.24713   -0.64998    6.89380
      48      444        2     0.10057    2.19915    4.68695   13.60287
      49      444        2     0.10057    2.74964   12.68316    3.07815
      50      444        2     0.10057    2.66633   11.44641    4.37345
      51      444        2     0.10057    2.29118    0.41987   13.31751
      52      444        2     0.10057    6.48348    6.00725    5.78433
      53      444        3    -0.12395    1.39528    0.40697    9.84628
      54      444        3    -0.12395    3.32736    6.65200    0.93639
      55      444        4     0.06228    1.94227   -2.43012   13.83200
      56      444        3    -0.12395   -2.37905    9.81453   10.17888
      57      444        4     0.06228   -0.05022   -1.72136   12.45167
      58      444        3    -0.12395    7.93917    2.68586    1.80475
      59      444        3    -0.12395   -0.85337    0.40503   10.78440
      60      444        3    -0.12395    7.95867    2.96278    0.44646
      61      444        3    -0.12395    0.05155    9.90195   10.19101
      62      444        3    -0.12395   -2.33550    8.79222    9.24249
      63      444        3    -0.12395    8.27460    5.32574    0.92852
      64      444        3    -0.12395    8.28252    5.03525    2.29027
      65      444        4     0.06228   -0.34233   -3.44000   14.23595
      66      444        3    -0.12395    1.04980    1.46076    9.01713
      67      444        3    -0.12395    3.36106    4.22892    0.75151
      68      444        4    -0.03665    0.62540   -2.90036   13.16963
      69      444        3     0.31141   -1.18369   10.37325   10.66409
      70      444        3    -0.21757    1.92481    5.31002    2.39468
      71      444        3    -0.12395    0.08045    8.88820    9.23761
      72      444        3     0.31141    0.44216   -0.12948   10.72787
      73      444        3     0.67964    0.96176    5.23081    3.53233
      74      444        3     0.31141    8.09495    4.28817    0.00315
      75      444        3    -0.12395    2.42754    4.15305    1.78774
      76      444        4     0.06228    0.97849   -4.00543   12.16663
      77      444        3    -0.21757    8.08870    3.72101    2.74335
      78      444        3     0.67964   -0.64081    3.08360    8.12799
      79      444        3    -0.21757   -0.25469    1.99293    9.04343
      80      444        3    -0.12395    2.38250    6.56054    1.94900
      81      444        3    -0.12395   -1.19561    1.45364    9.93526
      82      444        3     0.31141    3.81958    5.48427    0.33276
      83      444        3     0.67964   -1.03429    7.22708    7.75176
      84      444        3    -0.21757   -1.10404    8.31293    8.75760
      85      444        3     0.67964    7.96824    3.42778    4.18463
      86      444        3    -0.12395    2.88500    7.46496    5.90402
      87      444        3    -0.12395    0.95267    1.21980   14.81407
      88      444        4     0.06228    2.33759   10.30197    1.91829
      89      444        3    -0.12395    6.65899   -1.94259    5.57126
      90      444        4     0.06228    4.33014    9.59340    3.29863
      91      444        3    -0.12395   -3.65840    5.18572   13.94523
      92      444        3    -0.12395    5.13358    7.46718    4.96590
      93      444        3    -0.12395   -3.67817    4.90889   15.30352
      94      444        3    -0.12395    4.22839   -2.02972    5.55913
      95      444        3    -0.12395    6.61558   -0.92040    6.50781
      96      444        3    -0.12395   -3.99467    2.54600   14.82162
      97      444        3    -0.12395   -4.00235    2.83636   13.45987
      98      444        4     0.06228    4.62217   11.31192    1.51435
      99      444        3    -0.12395    3.23049    6.41073    6.73238
     100      444        3    -0.12395    0.91865    3.64280   14.99879
     101      444        4    -0.03665    3.65480   10.77287    2.57956
     102      444        3     0.31141    5.46989   -2.59348    5.08606
     103      444        3    -0.21757    2.35501    2.56160   13.35578
     104      444        3    -0.12395    4.19963   -1.01610    6.51269
     105      444        3     0.31141    3.83782    8.00112    5.02196
     106      444        3     0.67964    3.31810    2.64077   12.21797
     107      444        3     0.31141   -3.81432    3.58416   15.74573
     108      444        3    -0.12395    1.85221    3.71869   13.96240
     109      444        4     0.06228    3.30127   11.87739    3.58367
     110      444        3    -0.21757   -3.80817    4.15059   13.00664
     111      444        3     0.67964    4.92131    4.78778    7.62121
     112      444        3    -0.21757    4.53516    5.87903    6.70655
     113      444        3    -0.12395    1.89747    1.31113   13.80161
     114      444        3    -0.12395    5.47586    6.41818    5.81425
     115      444        3     0.31141    0.46023    2.38746   15.41770
     116      444        3     0.67964    5.31466    0.64476    7.99869
     117      444        3    -0.21757    5.38452   -0.44038    6.99159
     118      444        3     0.67964   -3.68744    4.44375   11.56536
     119      444        5    -0.27005   -0.23043   -4.53368   11.59119
     120      444        6    -0.57876    8.25853    4.30935    5.07519
     121      444        5    -0.27005    2.64491   -3.55892   14.39122
     122      444        6    -0.57876    0.20732    3.63612    7.38105
     123      444        6    -0.70796   -1.91330    3.42946    8.12248
     124      444        5    -0.27005   -0.68351   -2.34544   15.10021
     125      444        6    -0.57876    7.49078    2.28436    4.53833
     126      444        5    -0.27005    0.87148   -1.17978   11.49402
     127      444        6    -0.57876    0.77394    4.10792    4.11250
     128      444        6    -0.57876   -2.07819    6.48253    7.51916
     129      444        6    -0.57876    0.03613    7.03367    7.10939
     130      444        6    -0.57876    0.37998    6.30498    3.92446
     131      444        5    -0.27005    4.51022   12.40575    4.15896
     132      444        6    -0.57876   -4.30807    3.56237   10.67479
     133      444        5    -0.27005    1.63505   11.43081    1.35876
     134      444        6    -0.57876    4.07328    4.23532    8.36846
     135      444        6    -0.70796    6.19395    4.44252    7.62688
     136      444        5    -0.27005    4.96333   10.21732    0.65009
     137      444        6    -0.57876   -3.20963    5.58693   11.21181
     138      444        5    -0.27005    3.40852    9.05177    4.25644
     139      444        6    -0.57876    3.50575    3.76359   11.63764
     140      444        6    -0.57876    6.35862    1.38929    8.23114
     141      444        6    -0.57876    4.24438    0.83816    8.64122
     142      444        6    -0.57876    3.90002    1.56665   11.82599
     143      444        1     1.15748   -8.47889   -2.82337   24.78617
     144      444        1     1.07424   -5.92258   -2.85695   21.54282
     145      444        1     1.15748    1.87000   -5.36564   22.45968
     146      444        1     1.07424   -0.68691   -5.33189   25.70414
     147      444        2     0.10057   -3.04163   -8.03178   25.57988
     148      444        2     0.10057   -1.74149   -0.41608   16.33629
     149      444        2     0.10057   -3.72841   -9.71605   30.35286
     150      444        2     0.10057   -2.84096  -10.00910   28.83064
     151      444        2     0.10057   -8.77300    2.16910   26.29801
     152      444        2     0.10057   -5.78074   -8.97410   28.92166
     153      444        2     0.10057   -6.40173  -10.11611   27.68999
     154      444        2     0.10057    2.34632   -6.36212   17.91096
     155      444        2     0.10057   -7.04185   -8.01687   27.22258
     156      444        2     0.10057   -3.04388  -13.88923   31.20217
     157      444        2     0.10057   -4.45702    2.29039   26.30115
     158      444        2     0.10057   -8.70896    0.34231   24.60412
     159      444        2     0.10057    2.98324   -1.68085   16.33802
     160      444        2     0.10057    2.99449   -2.19799   18.76310
     161      444        2     0.10057   -5.30015  -12.27802   30.55318
     162      444        2     0.10057   -6.69693  -11.87149   29.51159
     163      444        2     0.10057   -3.65998   -6.14569   24.08223
     164      444        2     0.10057   -1.70829   -4.71483   16.04211
     165      444        2     0.10057   -4.41174    0.49185   24.60475
     166      444        2     0.10057   -3.36422   -4.84556   17.89537
     167      444        2     0.10057   -3.91471  -12.84163   28.42040
     168      444        2     0.10057   -3.83119  -11.60480   27.12510
     169      444        2     0.10057   -3.45581   -0.57858   18.18151
     170      444        2     0.10057   -7.64793   -6.16562   25.71374
     171      444        2     0.10057   -3.56772   -0.15742   21.66676
     172      444        2     0.10057   -4.86778   -7.77274   30.91067
     173      444        2     0.10057   -2.88111    1.52716   16.89394
     174      444        2     0.10057   -3.76866    1.82040   18.41601
     175      444        2     0.10057    2.16352  -10.35783   20.94832
     176      444        2     0.10057   -0.82851    0.78577   18.32451
     177      444        2     0.10057   -0.20783    1.92752   19.55681
     178      444        2     0.10057   -8.95472   -1.82708   29.33553
     179      444        2     0.10057    0.43241   -0.17173   20.02406
     180      444        2     0.10057   -3.46252    5.85115   15.74825
     181      444        2     0.10057   -2.13838  -10.68005   20.94454
     182      444        2     0.10057    2.09967   -8.53123   22.64252
     183      444        2     0.10057   -9.59297   -6.50806   30.90862
     184      444        2     0.10057   -9.60396   -5.99109   28.48355
     185      444        2     0.10057   -1.30923    4.08953   16.69299
     186      444        2     0.10057    0.08733    3.68268   17.73521
     187      444        2     0.10057   -2.94908   -2.04360   23.16410
     188      444        2     0.10057   -4.90149   -3.47404   31.20437
     189      444        2     0.10057   -2.19760   -8.68033   22.64205
     190      444        2     0.10057   -3.24558   -3.34340   29.35112
     191      444        2     0.10057   -2.69508    4.65280   18.82640
     192      444        2     0.10057   -2.77840    3.41606   20.12170
     193      444        2     0.10057   -3.15355   -7.61049   29.06576
     194      444        2     0.10057    1.03875   -2.02310   21.53258
     195      444        3    -0.12395   -4.04945   -7.62338   25.59453
     196      444        3    -0.12395   -2.11737   -1.37835   16.68464
     197      444        4     0.06228   -3.50246  -10.46047   29.58026
     198      444        3    -0.12395   -7.82378    1.78418   25.92713
     199      444        4     0.06228   -5.49495   -9.75171   28.19992
     200      444        3    -0.12395    2.49444   -5.34449   17.55300
     201      444        3    -0.12395   -6.29810   -7.62532   26.53265
     202      444        3    -0.12395    2.51394   -5.06757   16.19471
     203      444        3    -0.12395   -5.39318    1.87160   25.93926
     204      444        3    -0.12395   -7.78023    0.76187   24.99074
     205      444        3    -0.12395    2.82988   -2.70461   16.67677
     206      444        3    -0.12395    2.83780   -2.99510   18.03852
     207      444        4     0.06228   -5.78705  -11.47035   29.98420
     208      444        3    -0.12395   -4.39492   -6.56960   24.76539
     209      444        3    -0.12395   -2.08366   -3.80144   16.49976
     210      444        4    -0.03665   -4.81933  -10.93071   28.91788
     211      444        3     0.31141   -6.62841    2.34290   26.41234
     212      444        3    -0.21757   -3.51992   -2.72033   18.14293
     213      444        3    -0.12395   -5.36428    0.85785   24.98586
     214      444        3     0.31141   -5.00257   -8.15983   26.47612
     215      444        3     0.67964   -4.48297   -2.79954   19.28058
     216      444        3     0.31141    2.65023   -3.74218   15.75140
     217      444        3    -0.12395   -3.01719   -3.87731   17.53599
     218      444        4     0.06228   -4.46624  -12.03578   27.91488
     219      444        3    -0.21757    2.64398   -4.30934   18.49160
     220      444        3     0.67964   -6.08554   -4.94675   23.87624
     221      444        3    -0.21757   -5.69942   -6.03742   24.79168
     222      444        3    -0.12395   -3.06223   -1.46982   17.69725
     223      444        3    -0.12395   -6.64034   -6.57672   25.68351
     224      444        3     0.31141   -1.62515   -2.54608   16.08101
     225      444        3     0.67964   -6.47901   -0.80327   23.50001
     226      444        3    -0.21757   -6.54876    0.28258   24.50585
     227      444        3     0.67964    2.52351   -4.60257   19.93288
     228      444        3    -0.12395   -2.55973   -0.56540   21.65227
     229      444        3    -0.12395   -4.49205   -6.81055   30.56232
     230      444        4     0.06228   -3.10714    2.27162   17.66655
     231      444        3    -0.12395    1.21426   -9.97294   21.31951
     232      444        4     0.06228   -1.11459    1.56305   19.04688
     233      444        3    -0.12395   -9.10312   -2.84463   29.69349
     234      444        3    -0.12395   -0.31114   -0.56317   20.71415
     235      444        3    -0.12395   -9.12290   -3.12146   31.05177
     236      444        3    -0.12395   -1.21633  -10.06007   21.30738
     237      444        3    -0.12395    1.17085   -8.95075   22.25606
     238      444        3    -0.12395   -9.43939   -5.48436   30.56988
     239      444        3    -0.12395   -9.44708   -5.19399   29.20812
     240      444        4     0.06228   -0.82256    3.28157   17.26260
     241      444        3    -0.12395   -2.21424   -1.61962   22.48063
     242      444        3    -0.12395   -4.52608   -4.38755   30.74704
     243      444        4    -0.03665   -1.78993    2.74252   18.32781
     244      444        3     0.31141    0.02517  -10.62383   20.83431
     245      444        3    -0.21757   -3.08972   -5.46875   29.10403
     246      444        3    -0.12395   -1.24510   -9.04645   22.26094
     247      444        3     0.31141   -1.60691   -0.02923   20.77021
     248      444        3     0.67964   -2.12663   -5.38958   27.96622
     249      444        3     0.31141   -9.25905   -4.44619   31.49398
     250      444        3    -0.12395   -3.59251   -4.31166   29.71065
     251      444        4     0.06228   -2.14345    3.84704   19.33192
     252      444        3    -0.21757   -9.25290   -3.87977   28.75489
     253      444        3     0.67964   -0.52342   -3.24258   23.36946
     254      444        3    -0.21757   -0.90957   -2.15132   22.45480
     255      444        3    -0.12395   -3.54726   -6.71922   29.54986
     256      444        3    -0.12395    0.03113   -1.61217   21.56251
     257      444        3     0.31141   -4.98449   -5.64289   31.16595
     258      444        3     0.67964   -0.13007   -7.38559   23.74695
     259      444        3    -0.21757   -0.06020   -8.47073   22.73985
     260      444        3     0.67964   -9.13217   -3.58660   27.31361
     261      444        5    -0.27005   -5.67516  -12.56403   27.33944
     262      444        6    -0.57876    2.81380   -3.72100   20.82344
     263      444        5    -0.27005   -2.79982  -11.58927   30.13948
     264      444        6    -0.57876   -5.23740   -4.39423   23.12930
     265      444        6    -0.70796   -7.35802   -4.60089   23.87073
     266      444        5    -0.27005   -6.12823  -10.37579   30.84846
     267      444        6    -0.57876    2.04606   -5.74599   20.28658
     268      444        5    -0.27005   -4.57325   -9.21013   27.24227
     269      444        6    -0.57876   -4.67079   -3.92243   19.86075
     270      444        6    -0.57876   -7.52292   -1.54782   23.26741
     271      444        6    -0.57876   -5.40860   -0.99668   22.85764
     272      444        6    -0.57876   -5.06475   -1.72538   19.67272
     273      444        5    -0.27005   -0.93451    4.37540   19.90721
     274      444        6    -0.57876   -9.75280   -4.46798   26.42305
     275      444        5    -0.27005   -3.80968    3.40046   17.10701
     276      444        6    -0.57876   -1.37144   -3.79503   24.11671
     277      444        6    -0.70796    0.74922   -3.58783   23.37513
     278      444        5    -0.27005   -0.48140    2.18697   16.39834
     279      444        6    -0.57876   -8.65435   -2.44342   26.96006
     280      444        5    -0.27005   -2.03621    1.02142   20.00469
     281      444        6    -0.57876   -1.93898   -4.26676   27.38589
     282      444        6    -0.57876    0.91389   -6.64106   23.97939
     283      444        6    -0.57876   -1.20035   -7.19219   24.38947
     284      444        6    -0.57876   -1.54471   -6.46370   27.57424
     285      444        1     1.15748   -4.12443   21.10966    9.03792
     286      444        1     1.07424   -1.56812   21.07607    5.79457
     287      444        1     1.15748    6.22446   18.56738    6.71143
     288      444        1     1.07424    3.66755   18.60113    9.95589
     289      444        2     0.10057    1.31282   15.90124    9.83163
     290      444        2     0.10057    2.61297   23.51694    0.58804
     291      444        2     0.10057    0.62604   14.21697   14.60461
     292      444        2     0.10057    1.51350   13.92392   13.08239
     293      444        2     0.10057   -4.41854   26.10212   10.54975
     294      444        2     0.10057   -1.42629   14.95892   13.17341
     295      444        2     0.10057   -2.04727   13.81691   11.94174
     296      444        2     0.10057    6.70078   17.57090    2.16271
     297      444        2     0.10057   -2.68739   15.91615   11.47433
     298      444        2     0.10057    1.31058   10.04379   15.45392
     299      444        2     0.10057   -0.10257   26.22341   10.55290
     300      444        2     0.10057   -4.35451   24.27533    8.85587
     301      444        2     0.10057    7.33770   22.25218    0.58977
     302      444        2     0.10057    7.34895   21.73503    3.01485
     303      444        2     0.10057   -0.94570   11.65500   14.80493
     304      444        2     0.10057   -2.34247   12.06153   13.76334
     305      444        2     0.10057    0.69447   17.78734    8.33397
     306      444        2     0.10057    2.64617   19.21819    0.29386
     307      444        2     0.10057   -0.05729   24.42487    8.85650
     308      444        2     0.10057    0.99024   19.08746    2.14712
     309      444        2     0.10057    0.43975   11.09139   12.67215
     310      444        2     0.10057    0.52327   12.32822   11.37685
     311      444        2     0.10057    0.89864   23.35444    2.43326
     312      444        2     0.10057   -3.29347   17.76740    9.96549
     313      444        2     0.10057    0.78674   23.77560    5.91851
     314      444        2     0.10057   -0.51333   16.16028   15.16242
     315      444        2     0.10057    1.47335   25.46018    1.14569
     316      444        2     0.10057    0.58579   25.75342    2.66775
     317      444        2     0.10057    6.51798   13.57519    5.20007
     318      444        2     0.10057    3.52595   24.71879    2.57626
     319      444        2     0.10057    4.14662   25.86055    3.80856
     320      444        2     0.10057   -4.60027   22.10594   13.58728
     321      444        2     0.10057    4.78687   23.76129    4.27581
     322      444        2     0.10057    0.89193   29.78417    0.00000
     323      444        2     0.10057    2.21608   13.25298    5.19629
     324      444        2     0.10057    6.45412   15.40180    6.89427
     325      444        2     0.10057   -5.23852   17.42496   15.16037
     326      444        2     0.10057   -5.24950   17.94193   12.73530
     327      444        2     0.10057    3.04523   28.02255    0.94474
     328      444        2     0.10057    4.44178   27.61570    1.98696
     329      444        2     0.10057    1.40538   21.88942    7.41585
     330      444        2     0.10057   -0.54704   20.45898   15.45612
     331      444        2     0.10057    2.15686   15.25269    6.89380
     332      444        2     0.10057    1.10888   20.58962   13.60287
     333      444        2     0.10057    1.65937   28.58583    3.07815
     334      444        2     0.10057    1.57606   27.34908    4.37345
     335      444        2     0.10057    1.20091   16.32254   13.31751
     336      444        2     0.10057    5.39321   21.90992    5.78433
     337      444        3    -0.12395    0.30501   16.30964    9.84628
     338      444        3    -0.12395    2.23709   22.55467    0.93639
     339      444        4     0.06228    0.85200   13.47255   13.83200
     340      444        3    -0.12395   -3.46932   25.71720   10.17888
     341      444        4     0.06228   -1.14049   14.18131   12.45167
     342      444        3    -0.12395    6.84890   18.58853    1.80475
     343      444        3    -0.12395   -1.94364   16.30770   10.78440
     344      444        3    -0.12395    6.86840   18.86545    0.44646
     345      444        3    -0.12395   -1.03872   25.80462   10.19101
     346      444        3    -0.12395   -3.42577   24.69489    9.24249
     347      444        3    -0.12395    7.18433   21.22841    0.92852
     348      444        3    -0.12395    7.19225   20.93792    2.29027
     349      444        4     0.06228   -1.43260   12.46267   14.23595
     350      444        3    -0.12395   -0.04047   17.36343    9.01713
     351      444        3    -0.12395    2.27079   20.13159    0.75151
     352      444        4    -0.03665   -0.46487   13.00231   13.16963
     353      444        3     0.31141   -2.27396   26.27592   10.66409
     354      444        3    -0.21757    0.83454   21.21269    2.39468
     355      444        3    -0.12395   -1.00982   24.79087    9.23761
     356      444        3     0.31141   -0.64811   15.77319   10.72787
     357      444        3     0.67964   -0.12851   21.13348    3.53233
     358      444        3     0.31141    7.00468   20.19084    0.00315
     359      444        3    -0.12395    1.33727   20.05571    1.78774
     360      444        4     0.06228   -0.11178   11.89724   12.16663
     361      444        3    -0.21757    6.99843   19.62368    2.74335
     362      444        3     0.67964   -1.73108   18.98627    8.12799
     363      444        3    -0.21757   -1.34496   17.89560    9.04343
     364      444        3    -0.12395    1.29223   22.46321    1.94900
     365      444        3    -0.12395   -2.28588   17.35631    9.93526
     366      444        3     0.31141    2.72931   21.38694    0.33276
     367      444        3     0.67964   -2.12456   23.12975    7.75176