Created on Tue Feb 06 15:25:03 2018 

         848 atoms
        1024 bonds
        1824 angles
        1920 dihedrals
        1152 impropers

           5 atom types
           5 bond types
           8 angle types
           3 dihedral types
           1 improper types
           0.000000  36.814000 xlo xhi
           0.000000  31.988020 ylo yhi
           0.000000  30.174831 zlo zhi
          18.258226  18.271126  10.559601 xy xz yz

Masses

    1    65.380000000 # Zn3f2
    2     1.007940000 # H_
    3    12.010700000 # C_R
    4    15.999400000 # O_3_f
    5    15.999400000 # O_2

Bond Coeffs

    1      122.127512        2.014866  # Zn3f2 O_3_f
    2      357.440381        1.081418  # H_ C_R
    3      462.655054        1.379256  # C_R C_R
    4      391.669513        1.458000  # C_R C_R
    5      714.557442        1.269010  # C_R O_2

Angle Coeffs

    1                      fourier       32.394397        0.343737        0.374972        0.281246 # O_2 Zn3f2 O_2
    2              cosine/periodic       76.817955              -1               3 # H_ C_R C_R
    3              cosine/periodic      117.010657              -1               3 # C_R C_R C_R
    4              cosine/periodic      148.862838              -1               3 # C_R C_R O_2
    5              cosine/periodic      256.805977              -1               3 # O_2 C_R O_2
    6              cosine/periodic      101.626578              -1               3 # C_R C_R C_R
    7                      fourier       10.476826        0.343737        0.374972        0.281246 # Zn3f2 O_3_f Zn3f2
    8              cosine/periodic       33.013732              -1               3 # Zn3f2 O_2 C_R

Dihedral Coeffs

    1        1.497136              -1               2 # H_ C_R C_R H_
    2        0.555556              -1               2 # O_2 C_R C_R C_R
    3        2.245703              -1               2 # O_2 C_R O_2 Zn3f2

Improper Coeffs

    1        2.000000        1.000000       -1.000000        0.000000               0 # H_ C_R C_R C_R

Pair Coeffs

    1        0.124000        2.461553 # Zn3f2 Zn3f2
    2        0.044000        2.571134 # H_ H_
    3        0.105000        3.430851 # C_R C_R
    4        0.060000        3.118146 # O_3_f O_3_f
    5        0.060000        3.118146 # O_2 O_2

Atoms

       1      444        1     1.10363   10.77658    6.24697    4.43238
       2      444        1     1.10363    9.16628    5.32179    1.80566
       3      444        1     1.10363    9.16934    3.46411    4.42438
       4      444        1     1.10363    7.55492    6.23603    4.42212
       5      444        1     1.10363   25.89532   15.02670   10.65488
       6      444        1     1.10363   27.50561   15.95188   13.28160
       7      444        1     1.10363   29.11678   15.03755   10.66484
       8      444        1     1.10363   27.50257   17.80957   10.66288
       9      444        2     0.11587   11.28916    9.62614    6.82736
      10      444        2     0.11587   18.32846    7.54582   14.06147
      11      444        2     0.11587   18.32355   15.77598    2.47766
      12      444        2     0.11587   25.40124    9.59958    6.80744
      13      444        2     0.11587   15.66224   12.14436   14.06072
      14      444        2     0.11587   20.93858   17.29475    6.80684
      15      444        2     0.11587   13.96627    5.01427    6.82856
      16      444        2     0.11587   22.77614    8.09279    2.47766
      17      444        2     0.11587   15.66009   17.29271    6.81333
      18      444        2     0.11587   13.96362    8.10500    2.47720
      19      444        2     0.11587   20.94241   12.13892   14.06600
      20      444        2     0.11587   22.77785    5.01063    6.81710
      21      444        2     0.11587   22.70499   16.25905    8.25764
      22      444        2     0.11587   21.00967    9.12931    1.02655
      23      444        2     0.11587   13.89576   13.18089   12.60961
      24      444        2     0.11587   15.73331    3.97894    8.28043
      25      444        2     0.11587   18.34338   13.72784    1.02579
      26      444        2     0.11587   11.26997   11.67369    8.27877
      27      444        2     0.11587   25.38269   11.64749    8.25991
      28      444        2     0.11587   18.34830    5.49770   12.60961
      29      444        2     0.11587   13.89403   16.26305    8.27017
      30      444        2     0.11587   22.70828   13.16867   12.61006
      31      444        2     0.11587   15.72950    9.13476    1.02127
      32      444        2     0.11587   21.01181    3.98097    8.27394
      33      444        3    -0.05595   10.35118   10.07689    7.14691
      34      444        3    -0.05595   18.33317    6.54906   14.49901
      35      444        3    -0.05595   18.32752   15.85873    1.39227
      36      444        3    -0.05595   26.33130   10.06226    7.13635
      37      444        3    -0.05595   14.79909   12.64252   14.49870
      38      444        3    -0.05595   21.80158   17.87115    7.13529
      39      444        3    -0.05595   13.89164    3.97630    7.14796
      40      444        3    -0.05595   22.85113    8.05690    1.39227
      41      444        3    -0.05595   14.79636   17.86968    7.13906
      42      444        3    -0.05595   13.88841    8.06360    1.39196
      43      444        3    -0.05595   21.80523   12.63947   14.50202
      44      444        3    -0.05595   22.85339    3.97409    7.14102
      45      444        3    -0.05595   22.78011   17.29729    7.93900
      46      444        3    -0.05595   21.87271    8.63108    0.58841
      47      444        3    -0.05595   13.82076   13.21675   13.69500
      48      444        3    -0.05595   14.87035    3.40254    7.95197
      49      444        3    -0.05595   18.33861   14.72461    0.58826
      50      444        3    -0.05595   10.34052   11.21131    7.95092
      51      444        3    -0.05595   26.32063   11.19666    7.94036
      52      444        3    -0.05595   18.34428    5.41495   13.69500
      53      444        3    -0.05595   13.81842   17.29953    7.94609
      54      444        3    -0.05595   22.78352   13.21003   13.69530
      55      444        3    -0.05595   14.86669    8.63416    0.58524
      56      444        3    -0.05595   21.87544    3.40395    7.94805
      57      444        3     0.67191    9.15303    8.27437    5.86916
      58      444        3    -0.11502    9.14291    9.49488    6.73427
      59      444        3     0.67191    9.17994    2.36055    1.67350
      60      444        3    -0.11502    9.19171    1.14095    0.80869
      61      444        3     0.67191    6.60115    6.80067    1.67304
      62      444        3    -0.11502    5.54869    7.41845    0.80869
      63      444        3     0.67191   11.73233    3.83341    5.86946
      64      444        3    -0.11502   12.78627    3.21748    6.73427
      65      444        3     0.67191    6.60372    3.82635    5.86312
      66      444        3    -0.11502    5.55161    3.21346    6.73110
      67      444        3     0.67191   11.72979    6.80822    1.67863
      68      444        3    -0.11502   12.78329    7.42226    0.81185
      69      444        3     0.67191   24.93962   17.44028    9.21781
      70      444        3    -0.11502   23.88557   18.05621    8.35300
      71      444        3     0.67191   30.07076   14.47302   13.41422
      72      444        3    -0.11502   31.12241   13.85478   14.27722
      73      444        3     0.67191   27.49182   18.91312   13.41377
      74      444        3    -0.11502   27.47946   20.13224   14.27722
      75      444        3     0.67191   27.51878   12.99920    9.21811
      76      444        3    -0.11502   27.52891   11.77883    8.35285
      77      444        3     0.67191   30.06818   17.44731    9.22414
      78      444        3    -0.11502   31.12029   18.06020    8.35617
      79      444        3     0.67191   24.94214   14.46543   13.40864
      80      444        3    -0.11502   23.88848   13.85141   14.27526
      81      444        4    -1.26205    9.16982    5.31966    3.77261
      82      444        4    -1.26205   27.50207   15.95402   11.31466
      83      444        5    -0.60107   10.29602    7.80841    5.54025
      84      444        5    -0.60107    9.17267    3.48994    1.07739
      85      444        5    -0.60107    9.17638    2.17131    2.93646
      86      444        5    -0.60107    8.01650    7.79979    5.53150
      87      444        5    -0.60107    7.57998    6.23776    1.07634
      88      444        5    -0.60107   10.75471    3.08385    5.53301
      89      444        5    -0.60107   11.89656    5.05633    5.53874
      90      444        5    -0.60107    6.43359    6.88587    2.93631
      91      444        5    -0.60107    7.58360    3.07817    5.52999
      92      444        5    -0.60107   11.89515    6.89818    2.94205
      93      444        5    -0.60107   10.75183    6.24375    1.08192
      94      444        5    -0.60107    6.43475    5.04648    5.52577
      95      444        5    -0.60107   24.77536   16.21736    9.54852
      96      444        5    -0.60107   29.09190   15.03590   14.01093
      97      444        5    -0.60107   30.23830   14.38777   12.15095
      98      444        5    -0.60107   25.91724   18.18985    9.55426
      99      444        5    -0.60107   27.49918   17.78372   14.00987
     100      444        5    -0.60107   28.65534   13.47380    9.55577
     101      444        5    -0.60107   26.37585   13.46524    9.54701
     102      444        5    -0.60107   27.49543   19.10237   12.15080
     103      444        5    -0.60107   30.23706   16.22713    9.56135
     104      444        5    -0.60107   24.77677   14.37548   12.14522
     105      444        5    -0.60107   25.92008   15.02990   14.00535
     106      444        5    -0.60107   29.08829   18.19551    9.55727
     107      444        1     1.10363   19.91215   11.52677   19.51980
     108      444        1     1.10363   18.30184   10.60159   16.89308
     109      444        1     1.10363   18.30490    8.74391   19.51180
     110      444        1     1.10363   16.69049   11.51583   19.50954
     111      444        1     1.10363   35.03089   20.30651   25.74230
     112      444        1     1.10363   36.64117   21.23168   28.36902
     113      444        1     1.10363   38.25234   20.31735   25.75226
     114      444        1     1.10363   36.63813   23.08937   25.75030
     115      444        2     0.11587   20.42472   14.90594   21.91477
     116      444        2     0.11587   27.46403   12.82562   29.14889
     117      444        2     0.11587   27.45911   21.05578   17.56507
     118      444        2     0.11587   34.53680   14.87938   21.89486
     119      444        2     0.11587   24.79780   17.42417   29.14813
     120      444        2     0.11587   30.07415   22.57455   21.89425
     121      444        2     0.11587   23.10183   10.29407   21.91598
     122      444        2     0.11587   31.91171   13.37259   17.56507
     123      444        2     0.11587   24.79566   22.57251   21.90074
     124      444        2     0.11587   23.09918   13.38480   17.56462
     125      444        2     0.11587   30.07797   17.41872   29.15341
     126      444        2     0.11587   31.91342   10.29043   21.90451
     127      444        2     0.11587   31.84055   21.53885   23.34506
     128      444        2     0.11587   30.14523   14.40911   16.11396
     129      444        2     0.11587   23.03133   18.46069   27.69703
     130      444        2     0.11587   24.86888    9.25874   23.36784
     131      444        2     0.11587   27.47894   19.00764   16.11321
     132      444        2     0.11587   20.40553   16.95349   23.36618
     133      444        2     0.11587   34.51825   16.92729   23.34732
     134      444        2     0.11587   27.48387   10.77750   27.69703
     135      444        2     0.11587   23.02960   21.54285   23.35758
     136      444        2     0.11587   31.84384   18.44847   27.69748
     137      444        2     0.11587   24.86506   14.41456   16.10868
     138      444        2     0.11587   30.14738    9.26077   23.36135
     139      444        3    -0.05595   19.48675   15.35669   22.23432
     140      444        3    -0.05595   27.46873   11.82886   29.58642
     141      444        3    -0.05595   27.46308   21.13853   16.47968
     142      444        3    -0.05595   35.46686   15.34206   22.22376
     143      444        3    -0.05595   23.93465   17.92232   29.58612
     144      444        3    -0.05595   30.93714   23.15095   22.22271
     145      444        3    -0.05595   23.02720    9.25610   22.23538
     146      444        3    -0.05595   31.98669   13.33670   16.47968
     147      444        3    -0.05595   23.93192   23.14948   22.22648
     148      444        3    -0.05595   23.02398   13.34341   16.47938
     149      444        3    -0.05595   30.94079   17.91927   29.58944
     150      444        3    -0.05595   31.98896    9.25389   22.22844
     151      444        3    -0.05595   31.91568   22.57709   23.02641
     152      444        3    -0.05595   31.00827   13.91088   15.67582
     153      444        3    -0.05595   22.95633   18.49655   28.78241
     154      444        3    -0.05595   24.00592    8.68234   23.03939
     155      444        3    -0.05595   27.47417   20.00441   15.67567
     156      444        3    -0.05595   19.47609   16.49111   23.03833
     157      444        3    -0.05595   35.45619   16.47646   23.02777
     158      444        3    -0.05595   27.47984   10.69475   28.78241
     159      444        3    -0.05595   22.95399   22.57933   23.03350
     160      444        3    -0.05595   31.91908   18.48983   28.78272
     161      444        3    -0.05595   24.00225   13.91396   15.67266
     162      444        3    -0.05595   31.01100    8.68375   23.03547
     163      444        3     0.67191   18.28859   13.55417   20.95657
     164      444        3    -0.11502   18.27848   14.77468   21.82168
     165      444        3     0.67191   18.31550    7.64036   16.76091
     166      444        3    -0.11502   18.32727    6.42075   15.89610
     167      444        3     0.67191   15.73671   12.08047   16.76046
     168      444        3    -0.11502   14.68426   12.69825   15.89610
     169      444        3     0.67191   20.86789    9.11322   20.95687
     170      444        3    -0.11502   21.92183    8.49729   21.82168
     171      444        3     0.67191   15.73928    9.10615   20.95054
     172      444        3    -0.11502   14.68717    8.49327   21.81852
     173      444        3     0.67191   20.86535   12.08802   16.76604
     174      444        3    -0.11502   21.91885   12.70207   15.89927
     175      444        3     0.67191   34.07519   22.72008   24.30522
     176      444        3    -0.11502   33.02114   23.33601   23.44041
     177      444        3     0.67191   39.20633   19.75283   28.50164
     178      444        3    -0.11502   40.25797   19.13458   29.36464
     179      444        3     0.67191   36.62738   24.19292   28.50118
     180      444        3    -0.11502   36.61502   25.41204   29.36464
     181      444        3     0.67191   36.65434   18.27900   24.30552
     182      444        3    -0.11502   36.66447   17.05863   23.44026
     183      444        3     0.67191   39.20374   22.72711   24.31156
     184      444        3    -0.11502   40.25585   23.34000   23.44358
     185      444        3     0.67191   34.07770   19.74523   28.49605
     186      444        3    -0.11502   33.02404   19.13121   29.36268
     187      444        4    -1.26205   18.30538   10.59946   18.86002
     188      444        4    -1.26205   36.63764   21.23382   26.40207
     189      444        5    -0.60107   19.43158   13.08821   20.62767
     190      444        5    -0.60107   18.30823    8.76975   16.16481
     191      444        5    -0.60107   18.31194    7.45111   18.02388
     192      444        5    -0.60107   17.15206   13.07959   20.61891
     193      444        5    -0.60107   16.71554   11.51756   16.16375
     194      444        5    -0.60107   19.89028    8.36365   20.62042
     195      444        5    -0.60107   21.03212   10.33613   20.62616
     196      444        5    -0.60107   15.56915   12.16567   18.02373
     197      444        5    -0.60107   16.71916    8.35797   20.61741
     198      444        5    -0.60107   21.03071   12.17798   18.02946
     199      444        5    -0.60107   19.88739   11.52355   16.16933
     200      444        5    -0.60107   15.57031   10.32628   20.61318
     201      444        5    -0.60107   33.91092   21.49716   24.63594
     202      444        5    -0.60107   38.22746   20.31570   29.09834
     203      444        5    -0.60107   39.37387   19.66757   27.23837
     204      444        5    -0.60107   35.05280   23.46965   24.64167
     205      444        5    -0.60107   36.63474   23.06352   29.09729
     206      444        5    -0.60107   37.79091   18.75361   24.64318
     207      444        5    -0.60107   35.51141   18.74504   24.63443
     208      444        5    -0.60107   36.63100   24.38217   27.23822
     209      444        5    -0.60107   39.37262   21.50693   24.64876
     210      444        5    -0.60107   33.91233   19.65528   27.23263
     211      444        5    -0.60107   35.05564   20.30970   29.09276
     212      444        5    -0.60107   38.22385   23.47531   24.64469
     213      444        1     1.10363   19.90570   22.24098    4.43238
     214      444        1     1.10363   18.29539   21.31580    1.80566
     215      444        1     1.10363   18.29845   19.45812    4.42438
     216      444        1     1.10363   16.68404   22.23004    4.42212
     217      444        1     1.10363   35.02444   31.02071   10.65488
     218      444        1     1.10363   36.63472   31.94589   13.28160
     219      444        1     1.10363   38.24589   31.03156   10.66484
     220      444        1     1.10363   36.63168   33.80358   10.66288
     221      444        2     0.11587   20.41827   25.62015    6.82736
     222      444        2     0.11587   27.45758   23.53983   14.06147
     223      444        2     0.11587   27.45266   31.76999    2.47766
     224      444        2     0.11587   34.53035   25.59359    6.80744
     225      444        2     0.11587   24.79135   28.13837   14.06072
     226      444        2     0.11587   30.06770   33.28876    6.80684
     227      444        2     0.11587   23.09538   21.00828    6.82856
     228      444        2     0.11587   31.90526   24.08680    2.47766
     229      444        2     0.11587   24.78921   33.28672    6.81333
     230      444        2     0.11587   23.09273   24.09901    2.47720
     231      444        2     0.11587   30.07152   28.13293   14.06600
     232      444        2     0.11587   31.90697   21.00464    6.81710
     233      444        2     0.11587   31.83410   32.25306    8.25764
     234      444        2     0.11587   30.13878   25.12332    1.02655
     235      444        2     0.11587   23.02488   29.17490   12.60961
     236      444        2     0.11587   24.86243   19.97295    8.28043
     237      444        2     0.11587   27.47249   29.72185    1.02579
     238      444        2     0.11587   20.39908   27.66770    8.27877
     239      444        2     0.11587   34.51180   27.64150    8.25991
     240      444        2     0.11587   27.47742   21.49171   12.60961
     241      444        2     0.11587   23.02315   32.25706    8.27017
     242      444        2     0.11587   31.83739   29.16268   12.61006
     243      444        2     0.11587   24.85861   25.12877    1.02127
     244      444        2     0.11587   30.14093   19.97498    8.27394
     245      444        3    -0.05595   19.48030   26.07090    7.14691
     246      444        3    -0.05595   27.46228   22.54307   14.49901
     247      444        3    -0.05595   27.45663   31.85274    1.39227
     248      444        3    -0.05595   35.46041   26.05627    7.13635
     249      444        3    -0.05595   23.92820   28.63653   14.49870
     250      444        3    -0.05595   30.93069   33.86516    7.13529
     251      444        3    -0.05595   23.02075   19.97031    7.14796
     252      444        3    -0.05595   31.98024   24.05091    1.39227
     253      444        3    -0.05595   23.92547   33.86369    7.13906
     254      444        3    -0.05595   23.01753   24.05761    1.39196
     255      444        3    -0.05595   30.93434   28.63348   14.50202
     256      444        3    -0.05595   31.98251   19.96810    7.14102
     257      444        3    -0.05595   31.90923   33.29130    7.93900
     258      444        3    -0.05595   31.00182   24.62509    0.58841
     259      444        3    -0.05595   22.94987   29.21076   13.69500
     260      444        3    -0.05595   23.99947   19.39655    7.95197
     261      444        3    -0.05595   27.46772   30.71862    0.58826
     262      444        3    -0.05595   19.46964   27.20532    7.95092
     263      444        3    -0.05595   35.44974   27.19067    7.94036
     264      444        3    -0.05595   27.47339   21.40896   13.69500
     265      444        3    -0.05595   22.94754   33.29354    7.94609
     266      444        3    -0.05595   31.91263   29.20404   13.69530
     267      444        3    -0.05595   23.99580   24.62817    0.58524
     268      444        3    -0.05595   31.00455   19.39796    7.94805
     269      444        3     0.67191   18.28214   24.26838    5.86916
     270      444        3    -0.11502   18.27203   25.48889    6.73427
     271      444        3     0.67191   18.30905   18.35456    1.67350
     272      444        3    -0.11502   18.32082   17.13496    0.80869
     273      444        3     0.67191   15.73026   22.79468    1.67304
     274      444        3    -0.11502   14.67781   23.41246    0.80869
     275      444        3     0.67191   20.86144   19.82742    5.86946
     276      444        3    -0.11502   21.91538   19.21149    6.73427
     277      444        3     0.67191   15.73283   19.82036    5.86312
     278      444        3    -0.11502   14.68072   19.20747    6.73110
     279      444        3     0.67191   20.85890   22.80223    1.67863
     280      444        3    -0.11502   21.91240   23.41627    0.81185
     281      444        3     0.67191   34.06874   33.43429    9.21781
     282      444        3    -0.11502   33.01469   34.05022    8.35300
     283      444        3     0.67191   39.19988   30.46703   13.41422
     284      444        3    -0.11502   40.25152   29.84879   14.27722
     285      444        3     0.67191   36.62093   34.90713   13.41377
     286      444        3    -0.11502   36.60857   36.12625   14.27722
     287      444        3     0.67191   36.64789   28.99321    9.21811
     288      444        3    -0.11502   36.65802   27.77284    8.35285
     289      444        3     0.67191   39.19729   33.44132    9.22414
     290      444        3    -0.11502   40.24940   34.05421    8.35617
     291      444        3     0.67191   34.07125   30.45944   13.40864
     292      444        3    -0.11502   33.01759   29.84542   14.27526
     293      444        4    -1.26205   18.29893   21.31367    3.77261
     294      444        4    -1.26205   36.63119   31.94803   11.31466
     295      444        5    -0.60107   19.42513   23.80242    5.54025
     296      444        5    -0.60107   18.30178   19.48395    1.07739
     297      444        5    -0.60107   18.30549   18.16532    2.93646
     298      444        5    -0.60107   17.14561   23.79380    5.53150
     299      444        5    -0.60107   16.70909   22.23177    1.07634
     300      444        5    -0.60107   19.88383   19.07786    5.53301
     301      444        5    -0.60107   21.02567   21.05034    5.53874
     302      444        5    -0.60107   15.56270   22.87988    2.93631
     303      444        5    -0.60107   16.71271   19.07218    5.52999
     304      444        5    -0.60107   21.02426   22.89219    2.94205
     305      444        5    -0.60107   19.88094   22.23776    1.08192
     306      444        5    -0.60107   15.56386   21.04049    5.52577
     307      444        5    -0.60107   33.90447   32.21137    9.54852
     308      444        5    -0.60107   38.22101   31.02991   14.01093
     309      444        5    -0.60107   39.36742   30.38178   12.15095
     310      444        5    -0.60107   35.04635   34.18386    9.55426
     311      444        5    -0.60107   36.62829   33.77773   14.00987
     312      444        5    -0.60107   37.78446   29.46781    9.55577
     313      444        5    -0.60107   35.50496   29.45925    9.54701
     314      444        5    -0.60107   36.62455   35.09638   12.15080
     315      444        5    -0.60107   39.36617   32.22114    9.56135
     316      444        5    -0.60107   33.90588   30.36949   12.14522
     317      444        5    -0.60107   35.04919   31.02391   14.00535
     318      444        5    -0.60107   38.21740   34.18952    9.55727
     319      444        1     1.10363   29.04126   27.52078   19.51980
     320      444        1     1.10363   27.43095   26.59560   16.89308
     321      444        1     1.10363   27.43401   24.73792   19.51180
     322      444        1     1.10363   25.81960   27.50984   19.50954
     323      444        1     1.10363   44.16000   36.30052   25.74230
     324      444        1     1.10363   45.77029   37.22569   28.36902
     325      444        1     1.10363   47.38146   36.31136   25.75226
     326      444        1     1.10363   45.76724   39.08338   25.75030
     327      444        2     0.11587   29.55383   30.89995   21.91477
     328      444        2     0.11587   36.59314   28.81963   29.14889
     329      444        2     0.11587   36.58822   37.04979   17.56507
     330      444        2     0.11587   43.66591   30.87339   21.89486
     331      444        2     0.11587   33.92692   33.41818   29.14813
     332      444        2     0.11587   39.20326   38.56856   21.89425
     333      444        2     0.11587   32.23095   26.28808   21.91598
     334      444        2     0.11587   41.04082   29.36660   17.56507
     335      444        2     0.11587   33.92477   38.56652   21.90074
     336      444        2     0.11587   32.22829   29.37881   17.56462
     337      444        2     0.11587   39.20709   33.41273   29.15341
     338      444        2     0.11587   41.04253   26.28444   21.90451
     339      444        2     0.11587   40.96966   37.53286   23.34506
     340      444        2     0.11587   39.27434   30.40312   16.11396
     341      444        2     0.11587   32.16044   34.45470   27.69703
     342      444        2     0.11587   33.99799   25.25275   23.36784
     343      444        2     0.11587   36.60805   35.00165   16.11321
     344      444        2     0.11587   29.53464   32.94750   23.36618
     345      444        2     0.11587   43.64736   32.92130   23.34732
     346      444        2     0.11587   36.61298   26.77151   27.69703
     347      444        2     0.11587   32.15871   37.53686   23.35758
     348      444        2     0.11587   40.97296   34.44248   27.69748
     349      444        2     0.11587   33.99417   30.40857   16.10868
     350      444        2     0.11587   39.27649   25.25478   23.36135
     351      444        3    -0.05595   28.61586   31.35070   22.23432
     352      444        3    -0.05595   36.59784   27.82287   29.58642
     353      444        3    -0.05595   36.59219   37.13254   16.47968
     354      444        3    -0.05595   44.59598   31.33607   22.22376
     355      444        3    -0.05595   33.06376   33.91633   29.58612
     356      444        3    -0.05595   40.06626   39.14496   22.22271
     357      444        3    -0.05595   32.15631   25.25011   22.23538
     358      444        3    -0.05595   41.11580   29.33071   16.47968
     359      444        3    -0.05595   33.06104   39.14349   22.22648
     360      444        3    -0.05595   32.15309   29.33742   16.47938
     361      444        3    -0.05595   40.06990   33.91328   29.58944
     362      444        3    -0.05595   41.11807   25.24790   22.22844
     363      444        3    -0.05595   41.04479   38.57110   23.02641
     364      444        3    -0.05595   40.13739   29.90489   15.67582
     365      444        3    -0.05595   32.08544   34.49056   28.78241
     366      444        3    -0.05595   33.13503   24.67635   23.03939
     367      444        3    -0.05595   36.60329   35.99842   15.67567
     368      444        3    -0.05595   28.60520   32.48512   23.03833
     369      444        3    -0.05595   44.58531   32.47047   23.02777
     370      444        3    -0.05595   36.60895   26.68876   28.78241
     371      444        3    -0.05595   32.08310   38.57334   23.03350
     372      444        3    -0.05595   41.04820   34.48384   28.78272
     373      444        3    -0.05595   33.13136   29.90797   15.67266
     374      444        3    -0.05595   40.14011   24.67776   23.03547
     375      444        3     0.67191   27.41770   29.54818   20.95657
     376      444        3    -0.11502   27.40759   30.76869   21.82168
     377      444        3     0.67191   27.44462   23.63437   16.76091
     378      444        3    -0.11502   27.45638   22.41476   15.89610
     379      444        3     0.67191   24.86583   28.07448   16.76046
     380      444        3    -0.11502   23.81337   28.69226   15.89610
     381      444        3     0.67191   29.99700   25.10723   20.95687
     382      444        3    -0.11502   31.05094   24.49130   21.82168
     383      444        3     0.67191   24.86840   25.10016   20.95054
     384      444        3    -0.11502   23.81628   24.48728   21.81852