Created on Tue Feb 06 14:26:02 2018 

        1536 atoms
        2496 bonds
       10128 angles
        5280 dihedrals
        2448 impropers

           5 atom types
          11 bond types
          25 angle types
           7 dihedral types
           1 improper types
           0.000000  25.953000 xlo xhi
           0.000000  30.690000 ylo yhi
           0.000000  34.842000 zlo zhi
          -0.000536   0.000000   0.000000 xy xz yz

Masses

    1   138.905470000 # La3+3
    2     1.007940000 # H_
    3    12.010700000 # C_R
    4    14.006700000 # N_R
    5    15.999400000 # O_R

Bond Coeffs

    1      117.479435        2.612676  # La3+3 C_R
    2       61.622038        3.886000  # La3+3 La3+3
    3      174.315904        2.436167  # La3+3 O_R
    4      173.129592        2.525179  # La3+3 N_R
    5      357.440381        1.081418  # H_ C_R
    6      529.459447        1.043423  # H_ N_R
    7      391.669513        1.458000  # C_R C_R
    8      646.680887        1.311940  # C_R O_R
    9      462.655054        1.379256  # C_R C_R
   10      663.718927        1.345073  # C_R N_R
   11      929.109299        1.322497  # N_R N_R

Angle Coeffs

    1                      fourier        8.713398        0.343737        0.374972        0.281246 # C_R La3+3 O_R
    2                      fourier       12.536185        0.343737        0.374972        0.281246 # O_R La3+3 O_R
    3                      fourier       12.662527        0.343737        0.374972        0.281246 # N_R La3+3 O_R
    4                      fourier        4.678130        0.343737        0.374972        0.281246 # La3+3 La3+3 O_R
    5                      fourier        8.838552        0.343737        0.374972        0.281246 # C_R La3+3 N_R
    6                      fourier        3.428322        0.343737        0.374972        0.281246 # La3+3 La3+3 C_R
    7                      fourier        4.854732        0.343737        0.374972        0.281246 # La3+3 La3+3 N_R
    8                      fourier        6.106516        0.343737        0.374972        0.281246 # C_R La3+3 C_R
    9              cosine/periodic       40.599237              -1               3 # La3+3 C_R O_R
   10              cosine/periodic      137.761490              -1               3 # C_R C_R O_R
   11              cosine/periodic       28.272648              -1               3 # La3+3 C_R C_R
   12              cosine/periodic      217.450257              -1               3 # O_R C_R O_R
   13              cosine/periodic      101.626578              -1               3 # C_R C_R C_R
   14              cosine/periodic      143.630586              -1               3 # C_R C_R N_R
   15              cosine/periodic      165.695700              -1               3 # C_R C_R N_R
   16              cosine/periodic       76.817955              -1               3 # H_ C_R C_R
   17              cosine/periodic      117.010657              -1               3 # C_R C_R C_R
   18              cosine/periodic       14.291407              -1               3 # La3+3 C_R La3+3
   19              cosine/periodic      124.409598              -1               3 # H_ N_R N_R
   20              cosine/periodic       89.115099              -1               3 # H_ N_R C_R
   21              cosine/periodic      184.094783              -1               3 # C_R N_R N_R
   22              cosine/periodic       49.687895              -1               3 # N_R N_R La3+3
   23              cosine/periodic       36.300215              -1               3 # C_R N_R La3+3
   24              cosine/periodic       51.047321              -1               3 # La3+3 O_R C_R
   25              cosine/periodic       25.472821              -1               3 # La3+3 O_R La3+3

Dihedral Coeffs

    1        0.416667              -1               2 # O_R C_R C_R C_R
    2        1.684278              -1               2 # O_R C_R O_R La3+3
    3        1.122852              -1               2 # La3+3 C_R O_R La3+3
    4        1.497136              -1               2 # N_R C_R C_R C_R
    5        0.555556              -1               2 # C_R C_R C_R O_R
    6        2.245703              -1               2 # C_R C_R O_R La3+3
    7        0.898281              -1               2 # La3+3 C_R O_R La3+3

Improper Coeffs

    1        2.000000        1.000000       -1.000000        0.000000               0 # C_R C_R C_R N_R

Pair Coeffs

    1        0.017000        3.137745 # La3+3 La3+3
    2        0.044000        2.571134 # H_ H_
    3        0.105000        3.430851 # C_R C_R
    4        0.069000        3.260689 # N_R N_R
    5        0.060000        3.118146 # O_R O_R

Atoms

       1      444        1     2.17100    5.57299    4.06308    6.77504
       2      444        1     2.17084    7.40332   11.73527   10.64559
       3      444        1     2.16404    3.07772   11.28229   15.48534
       4      444        1     2.17112    1.24746    3.61006    1.93530
       5      444        1     2.17079    3.07776   11.28226   10.64559
       6      444        1     2.17102    1.24743    3.61011    6.77504
       7      444        1     2.17107    5.57302    4.06306    1.93530
       8      444        1     2.16398    7.40327   11.73529   15.48534
       9      444        2     0.16890    3.87623    0.11137   10.42659
      10      444        2     0.30631    8.48294    1.04433    9.64479
      11      444        2     0.16932    0.44916    7.78369    6.99390
      12      444        2     0.30643    4.49335    8.71682    7.77602
      13      444        2     0.16891    4.77460   15.23393    1.71646
      14      444        2     0.30543    0.16789   14.30097    0.93455
      15      444        2     0.16842    8.20160    7.56162   15.70418
      16      444        2     0.30658    4.15738    6.62856   16.48619
      17      444        2     0.16920    4.77457   15.23406    6.99411
      18      444        2     0.30633    0.16784   14.30100    7.77595
      19      444        2     0.16904    8.20166    7.56156   10.42687
      20      444        2     0.30631    4.15743    6.62849    9.64484
      21      444        2     0.16852    3.87617    0.11137   15.70430
      22      444        2     0.30654    8.48288    1.04432   16.48615
      23      444        2     0.16893    0.44918    7.78372    1.71647
      24      444        2     0.30540    4.49338    8.71677    0.93434
      25      444        3     0.63504    3.84953    2.67970    8.76116
      26      444        3     0.06786    2.83565    1.79794    9.37644
      27      444        3    -0.18182    2.96747    0.60363   10.10533
      28      444        3    -0.03103    1.66606    0.15336   10.29783
      29      444        3     0.72087    1.15691   14.21458   10.84851
      30      444        3     0.63543    0.47569   10.35191    8.65960
      31      444        3     0.06777    1.48959    9.47023    8.04425
      32      444        3    -0.18210    1.35787    8.27596    7.31529
      33      444        3    -0.02994    2.65932    7.82574    7.12292
      34      444        3     0.72024    3.16838    6.54239    6.57225
      35      444        3     0.62565    4.80120   12.66575    0.00000
      36      444        3     0.06994    5.81517   13.54741    0.66620
      37      444        3    -0.18352    5.68336   14.74170    1.39511
      38      444        3    -0.03082    6.98476   15.19203    1.58749
      39      444        3     0.72107    7.49387    1.13083    2.13813
      40      444        3     0.63512    8.17509    4.99346   17.37030
      41      444        3     0.06785    7.16111    5.87509   16.75451
      42      444        3    -0.18150    7.29288    7.06936   16.02554
      43      444        3    -0.03107    5.99145    7.51963   15.83316
      44      444        3     0.72059    5.48238    8.80301   15.28252
      45      444        3     0.63550    4.80122   12.66569    8.65951
      46      444        3     0.06759    5.81512   13.54746    8.04427
      47      444        3    -0.18173    5.68333   14.74177    7.31539
      48      444        3    -0.03049    6.98474   15.19203    7.12291
      49      444        3     0.72087    7.49387    1.13079    6.57218
      50      444        3     0.63518    8.17506    4.99345    8.76104
      51      444        3     0.06779    7.16118    5.87505    9.37652
      52      444        3    -0.18191    7.29293    7.06932   10.10550
      53      444        3    -0.03087    5.99150    7.51957   10.29787
      54      444        3     0.72062    5.48242    8.80297   10.84844
      55      444        3     0.63518    3.84954    2.67961   17.37030
      56      444        3     0.06790    2.83558    1.79791   16.75451
      57      444        3    -0.18170    2.96740    0.60360   16.02561
      58      444        3    -0.03096    1.66601    0.15328   15.83322
      59      444        3     0.72064    1.15687   14.21450   15.28252
      60      444        3     0.62583    0.47564   10.35195    0.00000
      61      444        3     0.06980    1.48964    9.47024    0.66611
      62      444        3    -0.18358    1.35791    8.27599    1.39509
      63      444        3    -0.03041    2.65934    7.82577    1.58751
      64      444        3     0.72034    3.16838    6.54239    2.13817
      65      444        3     1.04519    3.89231    3.22224    4.35518
      66      444        3     1.04576    0.43258   10.89409   13.06547
      67      444        3     1.04553    4.75855   12.12292   13.06547
      68      444        3     1.04530    8.21803    4.45109    4.35516
      69      444        4    -0.00858    0.85146    1.07216    9.69195
      70      444        4    -0.34432    1.53285    2.07593    9.12157
      71      444        4    -0.00844    3.47383    8.74464    7.72870
      72      444        4    -0.34505    2.79236    9.74825    8.29928
      73      444        4    -0.00918    7.79935   14.27312    0.98180
      74      444        4    -0.34963    7.11795   13.26945    0.41122
      75      444        4    -0.00846    5.17690    6.60071   16.43889
      76      444        4    -0.34426    5.85834    5.59710   17.00952
      77      444        4    -0.00810    7.79930   14.27321    7.72877
      78      444        4    -0.34509    7.11791   13.26945    8.29917
      79      444        4    -0.00843    5.17697    6.60064    9.69214
      80      444        4    -0.34451    5.85841    5.59704    9.12150
      81      444        4    -0.00846    0.85140    1.07219   16.43891
      82      444        4    -0.34435    1.53280    2.07586   17.00946
      83      444        4    -0.00931    3.47385    8.74459    0.98160
      84      444        4    -0.34946    2.79241    9.74826    0.41112
      85      444        5    -0.59972    5.07117    2.38730    8.76593
      86      444        5    -0.77325    3.39704    3.72982    8.13698
      87      444        5    -0.71064    8.55189   14.00845   10.79520
      88      444        5    -0.67942    2.03067   13.40088   11.27325
      89      444        5    -0.83222    3.39715    2.90386    5.50267
      90      444        5    -0.59948    7.90513   10.05961    8.65465
      91      444        5    -0.77347    0.92812   11.40210    9.28367
      92      444        5    -0.71027    4.42444    6.33649    6.62543
      93      444        5    -0.67900    2.29470    5.72866    6.14740
      94      444        5    -0.83158    0.92810   10.57625   11.91800
      95      444        5    -0.59834    3.57961   12.95804    0.05569
      96      444        5    -0.75345    5.25367   11.61552   16.84731
      97      444        5    -0.71108    0.09887    1.33699    2.08489
      98      444        5    -0.67953    6.62006    1.94444    2.56296
      99      444        5    -0.83304    5.25354   12.44156   14.21296
     100      444        5    -0.59928    0.74555    5.28572   17.36499
     101      444        5    -0.77354    7.72264    3.94327    0.57336
     102      444        5    -0.70973    4.22634    9.00891   15.33571
     103      444        5    -0.68053    6.35610    9.61671   14.85766
     104      444        5    -0.83201    7.72265    4.76915    3.20769
     105      444        5    -0.59949    3.57956   12.95805    8.65468
     106      444        5    -0.77360    5.25369   11.61554    9.28365
     107      444        5    -0.71061    0.09887    1.33695    6.62545
     108      444        5    -0.67903    6.62007    1.94444    6.14740
     109      444        5    -0.83144    5.25355   12.44154   11.91798
     110      444        5    -0.59957    0.74562    5.28569    8.76602
     111      444        5    -0.77356    7.72263    3.94324    8.13698
     112      444        5    -0.71048    4.22636    9.00882   10.79524
     113      444        5    -0.67951    6.35610    9.61671   11.27325
     114      444        5    -0.83234    7.72265    4.76915    5.50265
     115      444        5    -0.59942    5.07112    2.38731   17.36494
     116      444        5    -0.77343    3.39708    3.72982    0.57333
     117      444        5    -0.70982    8.55187   14.00836   15.33574
     118      444        5    -0.68036    2.03067   13.40090   14.85766
     119      444        5    -0.83189    3.39715    2.90384    3.20769
     120      444        5    -0.59846    7.90519   10.05961    0.05564
     121      444        5    -0.75347    0.92809   11.40209   16.84726
     122      444        5    -0.71070    4.42443    6.33644    2.08491
     123      444        5    -0.67945    2.29468    5.72864    2.56293
     124      444        5    -0.83313    0.92808   10.57625   14.21296
     125      444        5    -0.86368    5.01400    3.91719    4.35516
     126      444        5    -0.86266    7.96233   11.58957   13.06547
     127      444        5    -0.86255    3.63668   11.42820   13.06545
     128      444        5    -0.86355    0.68842    3.75583    4.35516
     129      444        1     2.17100    5.57299    4.06308   24.19604
     130      444        1     2.17084    7.40332   11.73527   28.06659
     131      444        1     2.16404    3.07772   11.28229   32.90634
     132      444        1     2.17112    1.24746    3.61006   19.35630
     133      444        1     2.17079    3.07776   11.28226   28.06659
     134      444        1     2.17102    1.24743    3.61011   24.19604
     135      444        1     2.17107    5.57302    4.06306   19.35630
     136      444        1     2.16398    7.40327   11.73529   32.90634
     137      444        2     0.16890    3.87623    0.11137   27.84759
     138      444        2     0.30631    8.48294    1.04433   27.06579
     139      444        2     0.16932    0.44916    7.78369   24.41490
     140      444        2     0.30643    4.49335    8.71682   25.19702
     141      444        2     0.16891    4.77460   15.23393   19.13746
     142      444        2     0.30543    0.16789   14.30097   18.35555
     143      444        2     0.16842    8.20160    7.56162   33.12518
     144      444        2     0.30658    4.15738    6.62856   33.90719
     145      444        2     0.16920    4.77457   15.23406   24.41511
     146      444        2     0.30633    0.16784   14.30100   25.19695
     147      444        2     0.16904    8.20166    7.56156   27.84787
     148      444        2     0.30631    4.15743    6.62849   27.06584
     149      444        2     0.16852    3.87617    0.11137   33.12530
     150      444        2     0.30654    8.48288    1.04432   33.90715
     151      444        2     0.16893    0.44918    7.78372   19.13747
     152      444        2     0.30540    4.49338    8.71677   18.35534
     153      444        3     0.63504    3.84953    2.67970   26.18216
     154      444        3     0.06786    2.83565    1.79794   26.79744
     155      444        3    -0.18182    2.96747    0.60363   27.52633
     156      444        3    -0.03103    1.66606    0.15336   27.71883
     157      444        3     0.72087    1.15691   14.21458   28.26951
     158      444        3     0.63543    0.47569   10.35191   26.08060
     159      444        3     0.06777    1.48959    9.47023   25.46525
     160      444        3    -0.18210    1.35787    8.27596   24.73629
     161      444        3    -0.02994    2.65932    7.82574   24.54392
     162      444        3     0.72024    3.16838    6.54239   23.99325
     163      444        3     0.62565    4.80120   12.66575   17.42100
     164      444        3     0.06994    5.81517   13.54741   18.08720
     165      444        3    -0.18352    5.68336   14.74170   18.81611
     166      444        3    -0.03082    6.98476   15.19203   19.00849
     167      444        3     0.72107    7.49387    1.13083   19.55913
     168      444        3     0.63512    8.17509    4.99346   34.79130
     169      444        3     0.06785    7.16111    5.87509   34.17551
     170      444        3    -0.18150    7.29288    7.06936   33.44654
     171      444        3    -0.03107    5.99145    7.51963   33.25416
     172      444        3     0.72059    5.48238    8.80301   32.70352
     173      444        3     0.63550    4.80122   12.66569   26.08051
     174      444        3     0.06759    5.81512   13.54746   25.46527
     175      444        3    -0.18173    5.68333   14.74177   24.73639
     176      444        3    -0.03049    6.98474   15.19203   24.54391
     177      444        3     0.72087    7.49387    1.13079   23.99318
     178      444        3     0.63518    8.17506    4.99345   26.18204
     179      444        3     0.06779    7.16118    5.87505   26.79752
     180      444        3    -0.18191    7.29293    7.06932   27.52650
     181      444        3    -0.03087    5.99150    7.51957   27.71887
     182      444        3     0.72062    5.48242    8.80297   28.26944
     183      444        3     0.63518    3.84954    2.67961   34.79130
     184      444        3     0.06790    2.83558    1.79791   34.17551
     185      444        3    -0.18170    2.96740    0.60360   33.44661
     186      444        3    -0.03096    1.66601    0.15328   33.25422
     187      444        3     0.72064    1.15687   14.21450   32.70352
     188      444        3     0.62583    0.47564   10.35195   17.42100
     189      444        3     0.06980    1.48964    9.47024   18.08711
     190      444        3    -0.18358    1.35791    8.27599   18.81609
     191      444        3    -0.03041    2.65934    7.82577   19.00851
     192      444        3     0.72034    3.16838    6.54239   19.55917
     193      444        3     1.04519    3.89231    3.22224   21.77618
     194      444        3     1.04576    0.43258   10.89409   30.48647
     195      444        3     1.04553    4.75855   12.12292   30.48647
     196      444        3     1.04530    8.21803    4.45109   21.77616
     197      444        4    -0.00858    0.85146    1.07216   27.11295
     198      444        4    -0.34432    1.53285    2.07593   26.54257
     199      444        4    -0.00844    3.47383    8.74464   25.14970
     200      444        4    -0.34505    2.79236    9.74825   25.72028
     201      444        4    -0.00918    7.79935   14.27312   18.40280
     202      444        4    -0.34963    7.11795   13.26945   17.83222
     203      444        4    -0.00846    5.17690    6.60071   33.85989
     204      444        4    -0.34426    5.85834    5.59710   34.43052
     205      444        4    -0.00810    7.79930   14.27321   25.14977
     206      444        4    -0.34509    7.11791   13.26945   25.72017
     207      444        4    -0.00843    5.17697    6.60064   27.11314
     208      444        4    -0.34451    5.85841    5.59704   26.54250
     209      444        4    -0.00846    0.85140    1.07219   33.85991
     210      444        4    -0.34435    1.53280    2.07586   34.43046
     211      444        4    -0.00931    3.47385    8.74459   18.40260
     212      444        4    -0.34946    2.79241    9.74826   17.83212
     213      444        5    -0.59972    5.07117    2.38730   26.18693
     214      444        5    -0.77325    3.39704    3.72982   25.55798
     215      444        5    -0.71064    8.55189   14.00845   28.21620
     216      444        5    -0.67942    2.03067   13.40088   28.69425
     217      444        5    -0.83222    3.39715    2.90386   22.92367
     218      444        5    -0.59948    7.90513   10.05961   26.07565
     219      444        5    -0.77347    0.92812   11.40210   26.70467
     220      444        5    -0.71027    4.42444    6.33649   24.04643
     221      444        5    -0.67900    2.29470    5.72866   23.56840
     222      444        5    -0.83158    0.92810   10.57625   29.33900
     223      444        5    -0.59834    3.57961   12.95804   17.47669
     224      444        5    -0.75345    5.25367   11.61552   34.26831
     225      444        5    -0.71108    0.09887    1.33699   19.50589
     226      444        5    -0.67953    6.62006    1.94444   19.98396
     227      444        5    -0.83304    5.25354   12.44156   31.63396
     228      444        5    -0.59928    0.74555    5.28572   34.78599
     229      444        5    -0.77354    7.72264    3.94327   17.99436
     230      444        5    -0.70973    4.22634    9.00891   32.75671
     231      444        5    -0.68053    6.35610    9.61671   32.27866
     232      444        5    -0.83201    7.72265    4.76915   20.62869
     233      444        5    -0.59949    3.57956   12.95805   26.07568
     234      444        5    -0.77360    5.25369   11.61554   26.70465
     235      444        5    -0.71061    0.09887    1.33695   24.04645
     236      444        5    -0.67903    6.62007    1.94444   23.56840
     237      444        5    -0.83144    5.25355   12.44154   29.33898
     238      444        5    -0.59957    0.74562    5.28569   26.18702
     239      444        5    -0.77356    7.72263    3.94324   25.55798
     240      444        5    -0.71048    4.22636    9.00882   28.21624
     241      444        5    -0.67951    6.35610    9.61671   28.69425
     242      444        5    -0.83234    7.72265    4.76915   22.92365
     243      444        5    -0.59942    5.07112    2.38731   34.78594
     244      444        5    -0.77343    3.39708    3.72982   17.99433
     245      444        5    -0.70982    8.55187   14.00836   32.75674
     246      444        5    -0.68036    2.03067   13.40090   32.27866
     247      444        5    -0.83189    3.39715    2.90384   20.62869
     248      444        5    -0.59846    7.90519   10.05961   17.47664
     249      444        5    -0.75347    0.92809   11.40209   34.26826
     250      444        5    -0.71070    4.42443    6.33644   19.50591
     251      444        5    -0.67945    2.29468    5.72864   19.98393
     252      444        5    -0.83313    0.92808   10.57625   31.63396
     253      444        5    -0.86368    5.01400    3.91719   21.77616
     254      444        5    -0.86266    7.96233   11.58957   30.48647
     255      444        5    -0.86255    3.63668   11.42820   30.48645
     256      444        5    -0.86355    0.68842    3.75583   21.77616
     257      444        1     2.17100    5.57272   19.40808    6.77504
     258      444        1     2.17084    7.40305   27.08027   10.64559
     259      444        1     2.16404    3.07746   26.62729   15.48534
     260      444        1     2.17112    1.24720   18.95506    1.93530
     261      444        1     2.17079    3.07749   26.62726   10.64559
     262      444        1     2.17102    1.24716   18.95511    6.77504
     263      444        1     2.17107    5.57276   19.40806    1.93530
     264      444        1     2.16398    7.40300   27.08029   15.48534
     265      444        2     0.16890    3.87597   15.45637   10.42659
     266      444        2     0.30631    8.48268   16.38933    9.64479
     267      444        2     0.16932    0.44889   23.12869    6.99390
     268      444        2     0.30643    4.49308   24.06182    7.77602
     269      444        2     0.16891    4.77433   30.57893    1.71646
     270      444        2     0.30543    0.16762   29.64597    0.93455
     271      444        2     0.16842    8.20134   22.90662   15.70418
     272      444        2     0.30658    4.15711   21.97356   16.48619
     273      444        2     0.16920    4.77430   30.57906    6.99411
     274      444        2     0.30633    0.16757   29.64600    7.77595
     275      444        2     0.16904    8.20139   22.90656   10.42687
     276      444        2     0.30631    4.15717   21.97349    9.64484
     277      444        2     0.16852    3.87590   15.45637   15.70430
     278      444        2     0.30654    8.48261   16.38932   16.48615
     279      444        2     0.16893    0.44891   23.12872    1.71647
     280      444        2     0.30540    4.49312   24.06177    0.93434
     281      444        3     0.63504    3.84926   18.02470    8.76116
     282      444        3     0.06786    2.83538   17.14294    9.37644
     283      444        3    -0.18182    2.96720   15.94863   10.10533
     284      444        3    -0.03103    1.66579   15.49836   10.29783
     285      444        3     0.72087    1.15664   29.55958   10.84851
     286      444        3     0.63543    0.47543   25.69691    8.65960
     287      444        3     0.06777    1.48932   24.81523    8.04425
     288      444        3    -0.18210    1.35760   23.62096    7.31529
     289      444        3    -0.02994    2.65905   23.17074    7.12292
     290      444        3     0.72024    3.16812   21.88739    6.57225
     291      444        3     0.62565    4.80094   28.01075    0.00000
     292      444        3     0.06994    5.81491   28.89241    0.66620
     293      444        3    -0.18352    5.68310   30.08670    1.39511
     294      444        3    -0.03082    6.98449   30.53703    1.58749
     295      444        3     0.72107    7.49361   16.47583    2.13813
     296      444        3     0.63512    8.17482   20.33846   17.37030
     297      444        3     0.06785    7.16084   21.22009   16.75451
     298      444        3    -0.18150    7.29261   22.41436   16.02554
     299      444        3    -0.03107    5.99118   22.86463   15.83316
     300      444        3     0.72059    5.48211   24.14801   15.28252
     301      444        3     0.63550    4.80095   28.01069    8.65951
     302      444        3     0.06759    5.81485   28.89246    8.04427
     303      444        3    -0.18173    5.68306   30.08677    7.31539
     304      444        3    -0.03049    6.98447   30.53703    7.12291
     305      444        3     0.72087    7.49361   16.47579    6.57218
     306      444        3     0.63518    8.17479   20.33845    8.76104
     307      444        3     0.06779    7.16091   21.22005    9.37652
     308      444        3    -0.18191    7.29266   22.41432   10.10550
     309      444        3    -0.03087    5.99123   22.86457   10.29787
     310      444        3     0.72062    5.48215   24.14797   10.84844
     311      444        3     0.63518    3.84928   18.02461   17.37030
     312      444        3     0.06790    2.83531   17.14291   16.75451
     313      444        3    -0.18170    2.96714   15.94860   16.02561
     314      444        3    -0.03096    1.66574   15.49828   15.83322
     315      444        3     0.72064    1.15661   29.55950   15.28252
     316      444        3     0.62583    0.47537   25.69695    0.00000
     317      444        3     0.06980    1.48937   24.81524    0.66611
     318      444        3    -0.18358    1.35764   23.62099    1.39509
     319      444        3    -0.03041    2.65907   23.17077    1.58751
     320      444        3     0.72034    3.16812   21.88739    2.13817
     321      444        3     1.04519    3.89204   18.56724    4.35518
     322      444        3     1.04576    0.43232   26.23909   13.06547
     323      444        3     1.04553    4.75828   27.46792   13.06547
     324      444        3     1.04530    8.21776   19.79609    4.35516
     325      444        4    -0.00858    0.85120   16.41716    9.69195
     326      444        4    -0.34432    1.53258   17.42093    9.12157
     327      444        4    -0.00844    3.47356   24.08964    7.72870
     328      444        4    -0.34505    2.79209   25.09325    8.29928
     329      444        4    -0.00918    7.79909   29.61812    0.98180
     330      444        4    -0.34963    7.11768   28.61445    0.41122
     331      444        4    -0.00846    5.17663   21.94571   16.43889
     332      444        4    -0.34426    5.85807   20.94210   17.00952
     333      444        4    -0.00810    7.79903   29.61821    7.72877
     334      444        4    -0.34509    7.11765   28.61445    8.29917
     335      444        4    -0.00843    5.17670   21.94564    9.69214
     336      444        4    -0.34451    5.85814   20.94204    9.12150
     337      444        4    -0.00846    0.85113   16.41719   16.43891
     338      444        4    -0.34435    1.53253   17.42086   17.00946
     339      444        4    -0.00931    3.47358   24.08959    0.98160
     340      444        4    -0.34946    2.79214   25.09326    0.41112
     341      444        5    -0.59972    5.07091   17.73230    8.76593
     342      444        5    -0.77325    3.39678   19.07482    8.13698
     343      444        5    -0.71064    8.55162   29.35345   10.79520
     344      444        5    -0.67942    2.03041   28.74588   11.27325
     345      444        5    -0.83222    3.39688   18.24886    5.50267
     346      444        5    -0.59948    7.90486   25.40461    8.65465
     347      444        5    -0.77347    0.92785   26.74710    9.28367
     348      444        5    -0.71027    4.42418   21.68149    6.62543
     349      444        5    -0.67900    2.29443   21.07366    6.14740
     350      444        5    -0.83158    0.92783   25.92125   11.91800
     351      444        5    -0.59834    3.57934   28.30304    0.05569