Created on Tue Feb 06 14:30:38 2018 

        2816 atoms
        3264 bonds
        5632 angles
        7488 dihedrals
        4608 impropers

           5 atom types
           8 bond types
          15 angle types
           4 dihedral types
           1 improper types
           0.000000  46.832000 xlo xhi
           0.000000  31.468000 ylo yhi
           0.000000  36.081702 zlo zhi
          -0.005492   0.097008   0.856633 xy xz yz

Masses

    1    65.380000000 # Zn3+2
    2     1.007940000 # H_
    3    12.010700000 # C_R
    4    14.006700000 # N_R
    5    15.999400000 # O_R

Bond Coeffs

    1      160.291409        1.840266  # Zn3+2 O_R
    2      165.837318        1.881712  # Zn3+2 N_R
    3      357.440381        1.081418  # H_ C_R
    4      462.655054        1.379256  # C_R C_R
    5      391.669513        1.458000  # C_R C_R
    6      646.680887        1.311940  # C_R O_R
    7      663.718927        1.345073  # C_R N_R
    8      929.109299        1.322497  # N_R N_R

Angle Coeffs

    1                      fourier       50.968023        0.343737        0.374972        0.281246 # O_R Zn3+2 O_R
    2                      fourier       53.299639        0.343737        0.374972        0.281246 # N_R Zn3+2 O_R
    3              cosine/periodic      101.626578              -1               3 # C_R C_R C_R
    4              cosine/periodic      117.010657              -1               3 # C_R C_R C_R
    5              cosine/periodic      217.450257              -1               3 # O_R C_R O_R
    6              cosine/periodic      137.761490              -1               3 # C_R C_R O_R
    7              cosine/periodic       76.817955              -1               3 # H_ C_R C_R
    8              cosine/periodic      165.695700              -1               3 # N_R C_R C_R
    9              cosine/periodic      109.704024              -1               3 # H_ C_R N_R
   10              cosine/periodic      234.844275              -1               3 # N_R C_R N_R
   11              cosine/periodic      143.630586              -1               3 # C_R C_R N_R
   12              cosine/periodic       36.261492              -1               3 # C_R N_R Zn3+2
   13              cosine/periodic      132.654363              -1               3 # C_R N_R C_R
   14              cosine/periodic      184.094783              -1               3 # N_R N_R C_R
   15              cosine/periodic       50.430477              -1               3 # Zn3+2 O_R C_R

Dihedral Coeffs

    1        1.497136              -1               2 # C_R C_R C_R C_R
    2        0.555556              -1               2 # C_R C_R C_R O_R
    3        2.245703              -1               2 # C_R C_R O_R Zn3+2
    4        3.368555              -1               2 # C_R N_R N_R C_R

Improper Coeffs

    1        2.000000        1.000000       -1.000000        0.000000               0 # C_R C_R C_R C_R

Pair Coeffs

    1        0.124000        2.461553 # Zn3+2 Zn3+2
    2        0.044000        2.571134 # H_ H_
    3        0.105000        3.430851 # C_R C_R
    4        0.069000        3.260689 # N_R N_R
    5        0.060000        3.118146 # O_R O_R

Atoms

       1      444        1     0.88198    3.07925    8.31397   14.12238
       2      444        1     0.88198   14.78706    8.31465   14.13934
       3      444        1     0.88198    3.08630    8.30603   16.92033
       4      444        1     0.88198   14.79434    8.31344   16.92881
       5      444        1     0.88198    8.87079    7.84396    3.93832
       6      444        1     0.88198   20.57888    7.84336    3.93760
       7      444        1     0.88198    8.89653    7.84281    1.13116
       8      444        1     0.88198   20.60206    7.84323    1.12954
       9      444        2     0.09912    0.87541    7.76669    3.53059
      10      444        2     0.09912   12.58337    7.77249    3.54052
      11      444        2     0.09912    5.20698    7.97995    3.52031
      12      444        2     0.09912   16.91519    7.97721    3.52879
      13      444        2     0.09912   11.39960    0.38916   15.38830
      14      444        2     0.09912   23.10795    0.39520   15.37748
      15      444        2     0.09912    6.47332    0.48667   15.34122
      16      444        2     0.09912   18.18170    0.49173   15.34429
      17      444        2     0.09912    4.75813   12.34252   17.07783
      18      444        2     0.09912   16.46595   12.35544   17.08324
      19      444        2     0.09912    1.38285    4.27078   17.12961
      20      444        2     0.09912   13.08706    4.26731   17.14440
      21      444        2     0.09912    6.16138   14.40358   16.99502
      22      444        2     0.09912   17.87362   14.41363   16.99737
      23      444        2     0.09912   11.67609    2.21248   17.05113
      24      444        2     0.09912   23.38736    2.21553   17.03886
      25      444        2     0.09912    6.85222   10.79566   13.66234
      26      444        2     0.09912   18.55053   10.80392   13.66504
      27      444        2     0.09912   11.06252    5.79814   13.68200
      28      444        2     0.09912   22.76490    5.80347   13.67334
      29      444        2     0.09912    8.36131   12.77508   13.68056
      30      444        2     0.09912   20.06277   12.78123   13.67785
      31      444        2     0.09912    9.54616    3.82397   13.68290
      32      444        2     0.09912   21.24827    3.82860   13.67731
      33      444        2     0.09912    0.95862    7.76834    1.04745
      34      444        2     0.09912   12.66599    7.77588    1.05701
      35      444        2     0.09912    5.11401    7.96285    1.03717
      36      444        2     0.09912   16.82175    7.96253    1.04619
      37      444        2     0.09912    1.30155   12.17965   13.75200
      38      444        2     0.09912   13.00913   12.17555   13.76084
      39      444        2     0.09912    4.88588    4.45923   13.72801
      40      444        2     0.09912   16.59177    4.46943   13.73901
      41      444        2     0.09912   10.94681   10.87214   17.30208
      42      444        2     0.09912   22.66011   10.87707   17.29631
      43      444        2     0.09912    6.90682    5.71988   17.30803
      44      444        2     0.09912   18.62336    5.72656   17.31417
      45      444        2     0.09912   11.57605   14.21581   13.67785
      46      444        2     0.09912   23.28431   14.21953   13.67082
      47      444        2     0.09912    6.31683    2.41682   13.64069
      48      444        2     0.09912   18.01946    2.42537   13.64700
      49      444        2     0.09912    9.46302   12.84657   17.17345
      50      444        2     0.09912   21.17731   12.85193   17.17074
      51      444        2     0.09912    8.38792    3.74467   17.17669
      52      444        2     0.09912   20.10204    3.75020   17.17796
      53      444        2     0.09912    1.18585    7.02840    9.53351
      54      444        2     0.09912   12.89393    7.03114    9.54469
      55      444        2     0.09912    4.90809    9.22043    9.40614
      56      444        2     0.09912   16.62090    9.21537    9.41841
      57      444        2     0.09912    1.25596    7.23336   12.03235
      58      444        2     0.09912   12.96361    7.23632   12.04299
      59      444        2     0.09912    4.85460    9.27863   11.91400
      60      444        2     0.09912   16.56568    9.27572   11.92536
      61      444        2     0.09912    6.77881    8.37503   14.52397
      62      444        2     0.09912   18.48598    8.38433   14.52072
      63      444        2     0.09912   11.10974    8.19569   14.53028
      64      444        2     0.09912   22.81693    8.20305   14.52649
      65      444        2     0.09912    5.49045   15.76295    2.64966
      66      444        2     0.09912   17.19995   15.76165    2.64966
      67      444        2     0.09912    0.56423   15.66513    2.69314
      68      444        2     0.09912   12.27355   15.66539    2.70360
      69      444        2     0.09912   10.55955    3.80685    0.97258
      70      444        2     0.09912   22.26213    3.80049    0.95851
      71      444        2     0.09912    7.17369   11.87329    0.90475
      72      444        2     0.09912   18.87872   11.86997    0.90475
      73      444        2     0.09912    0.25894    1.74560    1.03627
      74      444        2     0.09912   11.96692    1.74848    1.04817
      75      444        2     0.09912    5.75889   13.92670    0.98485
      76      444        2     0.09912   17.46514   13.92423    0.98575
      77      444        2     0.09912    0.92996    5.34774    4.37743
      78      444        2     0.09912   12.64860    5.34817    4.39096
      79      444        2     0.09912    5.17149   10.37288    4.39150
      80      444        2     0.09912   16.88022   10.37238    4.39493
      81      444        2     0.09912    2.45080    3.37586    4.35506
      82      444        2     0.09912   14.16548    3.37305    4.36589
      83      444        2     0.09912    3.64705   12.34389    4.37725
      84      444        2     0.09912   15.35712   12.34445    4.38176
      85      444        2     0.09912    6.86329    8.37058   17.01072
      86      444        2     0.09912   18.57021    8.37627   17.00711
      87      444        2     0.09912   11.02014    8.20975   17.01523
      88      444        2     0.09912   22.72710    8.21531   17.01180
      89      444        2     0.09912    7.09798    3.97439    4.29571
      90      444        2     0.09912   18.80816    3.97548    4.29517
      91      444        2     0.09912   10.69452   11.69169    4.33594
      92      444        2     0.09912   22.40100   11.69180    4.32998
      93      444        2     0.09912    5.04047    5.29492    0.75772
      94      444        2     0.09912   16.74492    5.29471    0.76024
      95      444        2     0.09912    1.00600   10.41667    0.75501
      96      444        2     0.09912   12.71308   10.41828    0.75916
      97      444        2     0.09912    5.67147    1.92931    4.36083
      98      444        2     0.09912   17.38332    1.92907    4.36228
      99      444        2     0.09912    0.40889   13.73945    4.40197
     100      444        2     0.09912   12.11859   13.73917    4.40936
     101      444        2     0.09912    3.56249    3.31593    0.86957
     102      444        2     0.09912   15.26819    3.31432    0.87426
     103      444        2     0.09912    2.47959   12.39811    0.87137
     104      444        2     0.09912   14.18776   12.39890    0.87679
     105      444        2     0.09912    6.79926    8.51107    8.58023
     106      444        2     0.09912   18.50541    8.50483    8.57716
     107      444        2     0.09912   11.01799    7.57291    8.58384
     108      444        2     0.09912   22.72830    7.58467    8.58113
     109      444        2     0.09912    6.86024    8.37539    6.08608
     110      444        2     0.09912   18.56744    8.36664    6.08229
     111      444        2     0.09912   10.89666    7.42222    6.09185
     112      444        2     0.09912   22.60791    7.43030    6.08951
     113      444        3    -0.01389    5.71857   11.43822   15.37081
     114      444        3    -0.01389   17.42241   11.44852   15.38397
     115      444        3    -0.01389    0.45337    5.16597   15.40995
     116      444        3    -0.01389   12.16255    5.16247   15.42186
     117      444        3     0.65925    4.83919   10.22881   15.40995
     118      444        3     0.65925   16.54461   10.23791   15.41771
     119      444        3     0.65925    1.33440    6.37337   15.44730
     120      444        3     0.65925   13.04354    6.37082   15.45921
     121      444        3    -0.01389    7.36739   13.72720   15.34699
     122      444        3    -0.01389   19.07483   13.73421   15.34717
     123      444        3    -0.01389   10.50480    2.88066   15.37459
     124      444        3    -0.01389   22.21220    2.88515   15.36593
     125      444        3    -0.01389   10.41804   13.67532   15.41825
     126      444        3    -0.01389   22.12790   13.68001   15.41266
     127      444        3    -0.01389    7.45381    2.93601   15.40165
     128      444        3    -0.01389   19.16243    2.94252   15.40472
     129      444        3    -0.10763    1.83502    7.81289    3.01950
     130      444        3    -0.10763   13.54293    7.81724    3.02888
     131      444        3    -0.10763    4.24532    7.92919    2.88654
     132      444        3    -0.10763   15.95354    7.93171    3.02184
     133      444        3    -0.01389    9.61739   14.92486   15.37513
     134      444        3    -0.01389   21.32638   14.92964   15.37008
     135      444        3    -0.01389    8.25269    1.68500   15.36323
     136      444        3    -0.01389   19.96055    1.69082   15.36251
     137      444        3     0.65925    1.28549   10.21148   15.55753
     138      444        3     0.65925   12.99192   10.21031   15.56727
     139      444        3     0.65925    4.88294    6.40467   15.56348
     140      444        3     0.65925   16.59372    6.41282   15.57232
     141      444        3    -0.01389    0.36899   11.39691   15.52307
     142      444        3    -0.01389   12.07402   11.39359   15.53083
     143      444        3    -0.01389    5.80016    5.22023   15.51784
     144      444        3    -0.01389   17.51129    5.22871   15.52632
     145      444        3    -0.10763   10.30892    0.41125   15.37676
     146      444        3    -0.10763   22.01723    0.41636   15.36900
     147      444        3    -0.10763    7.56404    0.46435   15.34970
     148      444        3    -0.10763   19.27244    0.47004   15.35024
     149      444        3    -0.01389    8.20331   14.95211   15.35619
     150      444        3    -0.01389   19.91213   14.95783   15.35475
     151      444        3    -0.01389    9.66690    1.65731   15.37171
     152      444        3    -0.01389   21.37463    1.66216   15.36557
     153      444        3    -0.10763    5.53032   12.45930   16.31939
     154      444        3    -0.10763   17.23704   12.47030   16.32318
     155      444        3    -0.10763    0.62264    4.15133   16.35944
     156      444        3    -0.10763   12.32885    4.14801   16.37225
     157      444        3    -0.10763    6.32416   13.60000   16.27808
     158      444        3    -0.10763   18.03305   13.60935   16.28024
     159      444        3    -0.10763   11.53034    3.01075   16.32481
     160      444        3    -0.10763   23.24002    3.01424   16.31344
     161      444        3    -0.10763    6.72571   11.57779   14.41175
     162      444        3    -0.10763   18.42729   11.58628   14.41338
     163      444        3    -0.10763   11.17228    5.02025   14.43701
     164      444        3    -0.10763   22.87646    5.02485   14.42727
     165      444        3    -0.10763    7.56018   12.69194   14.41464
     166      444        3    -0.10763   19.26359   12.69903   14.41464
     167      444        3    -0.10763   10.33342    3.90979   14.43214
     168      444        3    -0.10763   22.03770    3.91442   14.42420
     169      444        3     0.16030    1.87661    7.80503    1.63053
     170      444        3     0.16030   13.58422    7.81066    1.63991
     171      444        3     0.16030    4.19865    7.93111    1.62476
     172      444        3     0.16030   15.90634    7.93224    1.63270
     173      444        3    -0.01389    3.04193    7.87984    3.72995
     174      444        3    -0.01389   14.74998    7.88117    3.73951
     175      444        3    -0.10763    0.52835   12.34488   14.50088
     176      444        3    -0.10763   12.23480   12.34095   14.50845
     177      444        3    -0.10763    5.65125    4.28470   14.48301
     178      444        3    -0.10763   17.35895    4.29354   14.49167
     179      444        3    -0.10763   11.07217   11.59123   16.49331
     180      444        3    -0.10763   22.78458   11.59588   16.48717
     181      444        3    -0.10763    6.79040    5.01030   16.48970
     182      444        3    -0.10763   18.50387    5.01760   16.49565
     183      444        3     0.34110    3.04898    7.90546    5.20118
     184      444        3     0.34110   14.75768    7.90568    5.21110
     185      444        3    -0.10763   11.43190   13.47467   14.46552
     186      444        3    -0.10763   23.14084   13.47874   14.45884
     187      444        3    -0.10763    6.45295    3.14945   14.43773
     188      444        3    -0.10763   18.15902    3.15740   14.44387
     189      444        3    -0.10763   10.24138   12.70820   16.42313
     190      444        3    -0.10763   21.95377   12.71318   16.41826
     191      444        3    -0.10763    7.61978    3.89273   16.41808
     192      444        3    -0.10763   19.33195    3.89898   16.42114
     193      444        3     0.34110    3.05153    8.01879    7.79257
     194      444        3     0.34110   14.76153    8.01766    7.80303
     195      444        3    -0.01389    3.04766    8.11081    9.26398
     196      444        3    -0.01389   14.75794    8.10973    9.27534
     197      444        3    -0.10763    2.00745    7.54840   10.01827
     198      444        3    -0.10763   13.71653    7.54967   10.02927
     199      444        3    -0.10763    4.08878    8.75628    9.94863
     200      444        3    -0.10763   15.79994    8.75321    9.95855
     201      444        3     0.16030    2.04240    7.64907   11.40290
     202      444        3     0.16030   13.75111    7.65091   11.41409
     203      444        3     0.16030    4.06188    8.80250   11.33669
     204      444        3     0.16030   15.77223    8.80052   11.34824
     205      444        3    -0.01389   11.51908    4.70907    2.67185
     206      444        3    -0.01389   23.21852    4.70553    2.65814
     207      444        3    -0.01389    6.25745   10.99223    2.63884
     208      444        3    -0.01389   17.96433   10.99042    2.64046
     209      444        3     0.65925   10.63846    5.91863    2.63902
     210      444        3     0.65925   22.33572    5.91351    2.62639
     211      444        3     0.65925    7.13844    9.78313    2.60853
     212      444        3     0.65925   18.84546    9.78161    2.60907
     213      444        3    -0.01389    1.46181    2.42302    2.67005
     214      444        3    -0.01389   13.17300    2.42361    2.69747
     215      444        3    -0.01389    4.59612   13.27182    2.67203
     216      444        3    -0.01389   16.30444   13.27078    2.67474
     217      444        3    -0.01389    4.51442    2.47816    2.62224
     218      444        3    -0.01389   16.22362    2.47729    2.62530
     219      444        3    -0.01389    1.54627   13.21390    2.64425
     220      444        3    -0.01389   13.25503   13.21405    2.64984
     221      444        3    -0.10763    7.73796    8.33641   15.03705
     222      444        3    -0.10763   19.44522    8.34444   15.03362
     223      444        3    -0.10763   10.14927    8.23495   15.04030
     224      444        3    -0.10763   21.85642    8.24206   15.03705
     225      444        3    -0.01389    3.71408    1.22781    2.65976
     226      444        3    -0.01389   15.42375    1.22683    2.66445
     227      444        3    -0.01389    2.34359   14.46650    2.67618
     228      444        3    -0.01389   14.05261   14.46628    2.68213
     229      444        3     0.65925    7.07925    5.95303    2.50335
     230      444        3     0.65925   18.78505    5.95396    2.50335
     231      444        3     0.65925   10.69407    9.73557    2.51291
     232      444        3     0.65925   22.40232    9.73366    2.50966
     233      444        3    -0.01389    6.16411    4.76655    2.52933
     234      444        3    -0.01389   17.87120    4.76663    2.53023
     235      444        3    -0.01389   11.60885   10.92269    2.54953
     236      444        3    -0.01389   23.31635   10.92164    2.54466
     237      444        3    -0.10763    4.39974   15.74119    2.66012
     238      444        3    -0.10763   16.10922   15.74020    2.66265
     239      444        3    -0.10763    1.65495   15.68720    2.68502
     240      444        3    -0.10763   13.36426   15.68706    2.69368
     241      444        3    -0.01389    2.29982    1.19979    2.67708
     242      444        3    -0.01389   14.00965    1.19928    2.68556
     243      444        3    -0.01389    3.75777   14.49497    2.66842
     244      444        3    -0.01389   15.46677   14.49428    2.67203
     245      444        3    -0.10763   11.33258    3.68962    1.73012
     246      444        3    -0.10763   23.03497    3.68536    1.71659
     247      444        3    -0.10763    6.41815   11.99834    1.67852
     248      444        3    -0.10763   18.12423   11.99591    1.67780
     249      444        3    -0.10763    0.41835    2.54833    1.75501
     250      444        3    -0.10763   12.12874    2.55067    1.76764
     251      444        3    -0.10763    5.61780   13.13458    1.71875
     252      444        3    -0.10763   17.32463   13.13261    1.72020
     253      444        3    -0.10763    0.81040    4.56810    3.62585
     254      444        3    -0.10763   12.52668    4.56914    3.63902
     255      444        3    -0.10763    5.27162   11.14250    3.62693
     256      444        3    -0.10763   16.97991   11.14151    3.62982
     257      444        3    -0.10763    1.64993    3.45762    3.62026
     258      444        3    -0.10763   13.36386    3.45680    3.63162
     259      444        3    -0.10763    4.43058   12.25137    3.62495
     260      444        3    -0.10763   16.13957   12.25093    3.62838
     261      444        3     0.16030    7.78057    8.34173   16.42583
     262      444        3     0.16030   19.48762    8.34820   16.42241
     263      444        3     0.16030   10.10398    8.23446   16.42836
     264      444        3     0.16030   21.81084    8.24035   16.42529
     265      444        3    -0.01389    8.94434    8.28050   14.32498
     266      444        3    -0.01389   20.65165    8.28845   14.32155
     267      444        3    -0.10763    6.32567    3.81221    3.54521
     268      444        3    -0.10763   18.03499    3.81246    3.54575
     269      444        3    -0.10763   11.45843   11.86415    3.57750
     270      444        3    -0.10763   23.16525   11.86394    3.57335
     271      444        3    -0.10763    5.16587    4.57147    1.56270
     272      444        3    -0.10763   16.87183    4.57105    1.56486
     273      444        3    -0.10763    0.88839   11.13006    1.56991
     274      444        3    -0.10763   12.59615   11.13131    1.57443
     275      444        3     0.34110    8.94694    8.26201   12.85302
     276      444        3     0.34110   20.65453    8.27006   12.84960
     277      444        3    -0.10763    5.52621    2.67549    3.57822
     278      444        3    -0.10763   17.23658    2.67512    3.57967
     279      444        3    -0.10763    0.54710   13.00259    3.61034
     280      444        3    -0.10763   12.25626   13.00253    3.61629
     281      444        3    -0.10763    4.33823    3.45135    1.62332
     282      444        3    -0.10763   16.04521    3.45028    1.62656
     283      444        3    -0.10763    1.71343   12.25155    1.63324
     284      444        3    -0.10763   13.42177   12.25226    1.63829
     285      444        3     0.34110    8.93099    8.15290   10.26416
     286      444        3     0.34110   20.63896    8.15795   10.26073
     287      444        3    -0.01389    8.91124    8.05609    8.79095
     288      444        3    -0.01389   20.61948    8.05908    8.78770
     289      444        3    -0.10763    7.72837    8.27738    8.07094
     290      444        3    -0.10763   19.43573    8.27437    8.06733
     291      444        3    -0.10763   10.07552    7.74500    8.07328
     292      444        3    -0.10763   21.78513    7.75192    8.07039
     293      444        3     0.16030    7.75209    8.19291    6.68486
     294      444        3     0.16030   19.45999    8.18836    6.68125
     295      444        3     0.16030   10.01812    7.66888    6.67511
     296      444        3     0.16030   21.72821    7.67408    6.68486
     297      444        4    -0.26093    3.03588    7.87006    0.94191
     298      444        4    -0.26093   14.74345    7.87452    0.95093
     299      444        4    -0.14896    4.19795    8.27256    5.82250
     300      444        4    -0.14896   15.90710    8.27169    5.83225
     301      444        4    -0.14896    1.91585    7.54392    5.85462
     302      444        4    -0.14896   13.62510    7.54334    5.86508
     303      444        4    -0.14896    4.20286    8.31591    7.14616
     304      444        4    -0.14896   15.91267    8.31448    7.15608
     305      444        4    -0.14896    1.91394    7.61957    7.17791
     306      444        4    -0.14896   13.62389    7.61824    7.18838
     307      444        4    -0.26093    3.05530    8.25949   12.05201
     308      444        4    -0.26093   14.76439    8.26011   12.06392
     309      444        4    -0.26093    8.94150    8.28595   17.11283
     310      444        4    -0.26093   20.64829    8.29121   17.10976
     311      444        4    -0.14896   10.08423    7.86860   12.22683
     312      444        4    -0.14896   21.79233    7.87737   12.22376
     313      444        4    -0.14896    7.82189    8.66076   12.20842
     314      444        4    -0.14896   19.52920    8.66710   12.20427
     315      444        4    -0.14896   10.07697    7.81985   10.90317
     316      444        4    -0.14896   21.78534    7.82728   10.90010
     317      444        4    -0.14896    7.81239    8.59553   10.88459
     318      444        4    -0.14896   19.51995    8.60044   10.88062
     319      444        4    -0.26093    8.87725    7.89341    6.00400
     320      444        4    -0.26093   20.58644    7.89268    6.00093
     321      444        5    -0.57769    4.25936    9.95759   16.51279
     322      444        5    -0.57769   15.96359    9.97032   16.52109
     323      444        5    -0.57769    1.91921    6.63537   16.54869
     324      444        5    -0.57769   13.62745    6.63546   16.56060
     325      444        5    -0.57769    1.39549    9.54993   16.64395
     326      444        5    -0.57769   13.10280    9.55062   16.65495
     327      444        5    -0.57769    4.77184    7.04899   16.66000
     328      444        5    -0.57769   16.48170    7.05880   16.66776
     329      444        5    -0.57769    4.73255    9.55301   14.33057
     330      444        5    -0.57769   16.44103    9.55647   14.34194
     331      444        5    -0.57769    1.43492    7.05922   14.37387
     332      444        5    -0.57769   13.14395    7.05516   14.38433
     333      444        5    -0.57769    1.90510    9.95287   14.47183
     334      444        5    -0.57769   13.61304    9.95191   14.48247
     335      444        5    -0.57769    4.26491    6.67934   14.48085
     336      444        5    -0.57769   15.97469    6.68468   14.48951
     337      444        5    -0.57769   10.04843    6.17270    1.53690
     338      444        5    -0.57769   21.73459    6.16202    1.52896
     339      444        5    -0.57769    7.73770    9.52541    1.51363
     340      444        5    -0.57769   19.44563    9.52574    1.51417
     341      444        5    -0.57769    7.20233    6.61050    1.41567
     342      444        5    -0.57769   18.90604    6.61234    1.41621
     343      444        5    -0.57769   10.58644    9.08040    1.42180
     344      444        5    -0.57769   22.29558    9.07605    1.41981
     345      444        5    -0.57769   10.54095    6.60826    3.70974
     346      444        5    -0.57769   22.24774    6.60888    3.69404
     347      444        5    -0.57769    7.22223    9.09211    3.67997
     348      444        5    -0.57769   18.92918    9.08913    3.67961
     349      444        5    -0.57769    7.68367    6.21398    3.59771
     350      444        5    -0.57769   19.39080    6.21415    3.59735
     351      444        5    -0.57769   10.07591    9.47042    3.59789
     352      444        5    -0.57769   21.78357    9.47045    3.59464
     353      444        1     0.88198    3.12776    8.74228   32.16323
     354      444        1     0.88198   14.83557    8.74297   32.18019
     355      444        1     0.88198    3.13480    8.73435   34.96118
     356      444        1     0.88198   14.84284    8.74176   34.96966
     357      444        1     0.88198    8.91929    8.27228   21.97917
     358      444        1     0.88198   20.62738    8.27168   21.97845
     359      444        1     0.88198    8.94503    8.27113   19.17201
     360      444        1     0.88198   20.65057    8.27155   19.17039
     361      444        2     0.09912    0.92391    8.19500   21.57145
     362      444        2     0.09912   12.63187    8.20081   21.58137
     363      444        2     0.09912    5.25548    8.40827   21.56116
     364      444        2     0.09912   16.96369    8.40553   21.56964
     365      444        2     0.09912   11.44811    0.81748   33.42916
     366      444        2     0.09912   23.15645    0.82352   33.41833
     367      444        2     0.09912    6.52182    0.91498   33.38207
     368      444        2     0.09912   18.23020    0.92004   33.38514
     369      444        2     0.09912    4.80663   12.77084   35.11868
     370      444        2     0.09912   16.51446   12.78376   35.12409
     371      444        2     0.09912    1.43136    4.69910   35.17046
     372      444        2     0.09912   13.13556    4.69562   35.18525