Created on Tue Feb 06 14:39:19 2018 

        1344 atoms
        1632 bonds
        2784 angles
        3072 dihedrals
        1728 impropers

           5 atom types
           6 bond types
          10 angle types
           4 dihedral types
           1 improper types
           0.000000  30.027001 xlo xhi
           0.000000  26.307996 ylo yhi
           0.000000  31.093986 zlo zhi
           0.012857   0.029305   0.001071 xy xz yz

Masses

    1    65.380000000 # Zn3+2
    2     1.007940000 # H_
    3    12.010700000 # C_R
    4    32.065000000 # S_R
    5    15.999400000 # O_R

Bond Coeffs

    1      160.291409        1.840266  # Zn3+2 O_R
    2      357.440381        1.081418  # H_ C_R
    3      348.470281        1.701355  # C_R S_R
    4      462.655054        1.379256  # C_R C_R
    5      391.669513        1.458000  # C_R C_R
    6      646.680887        1.311940  # C_R O_R

Angle Coeffs

    1                      fourier       50.968023        0.343737        0.374972        0.281246 # O_R Zn3+2 O_R
    2              cosine/periodic       94.924302              -1               3 # S_R C_R C_R
    3              cosine/periodic       83.791823              -1               3 # S_R C_R C_R
    4              cosine/periodic      101.626578              -1               3 # C_R C_R C_R
    5              cosine/periodic      117.010657              -1               3 # C_R C_R C_R
    6              cosine/periodic       76.817955              -1               3 # H_ C_R C_R
    7              cosine/periodic      137.761490              -1               3 # C_R C_R O_R
    8              cosine/periodic      217.450257              -1               3 # O_R C_R O_R
    9              cosine/periodic       84.267785              -1               3 # C_R S_R C_R
   10              cosine/periodic       50.430477              -1               3 # Zn3+2 O_R C_R

Dihedral Coeffs

    1        1.775384              -1               2 # C_R C_R S_R C_R
    2        1.497136              -1               2 # C_R C_R C_R H_
    3        0.555556              -1               2 # S_R C_R C_R O_R
    4        2.245703              -1               2 # C_R C_R O_R Zn3+2

Improper Coeffs

    1        2.000000        1.000000       -1.000000        0.000000               0 # C_R C_R S_R C_R

Pair Coeffs

    1        0.124000        2.461553 # Zn3+2 Zn3+2
    2        0.044000        2.571134 # H_ H_
    3        0.105000        3.430851 # C_R C_R
    4        0.274000        3.594776 # S_R S_R
    5        0.060000        3.118146 # O_R O_R

Atoms

       1      444        1     1.03829    1.11488   12.40074    4.72186
       2      444        1     1.03570    1.00343    3.40252    3.85458
       3      444        1     1.03940    4.01590    0.76822   12.49880
       4      444        1     1.03434    4.12533    9.76310   11.62778
       5      444        1     1.03927    9.01081    5.84933    3.10794
       6      444        1     1.03550    9.08836    9.99257    3.97563
       7      444        1     1.03502    6.12675    7.35328   10.88111
       8      444        1     1.03284    6.02050    3.20628   11.75032
       9      444        2     0.12552    5.32205   12.82163    5.55304
      10      444        2     0.11513    7.82018    0.54677    5.25252
      11      444        2     0.13639    6.62140   10.23347    7.25706
      12      444        2     0.13728    5.06476   11.35128    9.09323
      13      444        2     0.12577    9.81328    0.36163   13.31272
      14      444        2     0.11620    7.31618   12.63684   13.00710
      15      444        2     0.13720    8.50123    2.96543   15.03145
      16      444        2     0.13645    0.04103    1.86013    1.32190
      17      444        2     0.12506    4.78411    6.25125    2.24429
      18      444        2     0.11496    2.28106    7.12721    2.56317
      19      444        2     0.13630    3.48431    3.64061    0.56981
      20      444        2     0.13718    5.06250    4.74972   14.28268
      21      444        2     0.12530    0.32302    6.92361   10.03006
      22      444        2     0.11496    2.82857    6.04830   10.34195
      23      444        2     0.13574    1.65279    9.53353    8.35416
      24      444        2     0.13667    0.07971    8.44454    6.51562
      25      444        3    -0.19883    4.67722    1.46521    4.50431
      26      444        3    -0.06328    5.60539    0.58925    5.05389
      27      444        3    -0.06358    6.92623    1.04679    4.89342
      28      444        3    -0.18871    6.98814    2.26150    4.22295
      29      444        3     0.72829    3.20758    1.35074    4.48189
      30      444        3     0.70110    8.18576    3.05389    3.91795
      31      444        3    -0.20531    7.98627   11.90363    7.53295
      32      444        3    -0.05961    6.83885   11.15873    7.78569
      33      444        3    -0.06239    6.01605   11.75392    8.75649
      34      444        3    -0.19021    6.55037   12.94041    9.24500
      35      444        3     0.69473    8.97603   11.61686    6.48275
      36      444        3     0.70863    5.95990    0.65536   10.28099
      37      444        3    -0.19687    0.45195   11.72141   12.26022
      38      444        3    -0.06477    9.53094   12.59546   12.81040
      39      444        3    -0.06265    8.21066   12.13820   12.64697
      40      444        3    -0.18869    8.15010   10.92678   11.97072
      41      444        3     0.72866    1.92148   11.84403   12.24817
      42      444        3     0.70077    6.95480   10.13202   11.66477
      43      444        3    -0.20439    7.14935    1.28359   15.30483
      44      444        3    -0.06052    8.27566    2.03754    0.00000
      45      444        3    -0.06352    9.10234    1.44974    0.98458
      46      444        3    -0.18951    8.57851    0.25863    1.47264
      47      444        3     0.69556    6.15494    1.56083   14.25522
      48      444        3     0.70991    9.17300   12.54745    2.50986
      49      444        3    -0.19695    5.42737    8.03364    3.31641
      50      444        3    -0.06455    4.49676    7.16638    2.75670
      51      444        3    -0.06297    3.17597    7.62174    2.92750
      52      444        3    -0.18845    3.11564    8.82621    3.61608
      53      444        3     0.72747    6.89791    7.92057    3.33054
      54      444        3     0.69979    1.92345    9.62407    3.93131
      55      444        3    -0.20505    2.12999    5.32061    0.29636
      56      444        3    -0.05951    3.27253    4.56824    0.04299
      57      444        3    -0.06300    4.11392    5.15879   14.61923
      58      444        3    -0.18913    3.58895    6.34955   14.13121
      59      444        3     0.69587    1.13757    5.04392    1.34799
      60      444        3     0.70707    4.17957    7.21608   13.09640
      61      444        3    -0.19701    9.69553    5.14261   11.10749
      62      444        3    -0.06546    0.61361    6.01002   10.54327
      63      444        3    -0.06280    1.93454    5.55530   10.71004
      64      444        3    -0.18868    1.99695    4.35137   11.39927
      65      444        3     0.72736    8.22630    5.25690   11.12521
      66      444        3     0.69993    3.19420    3.56155   11.71066
      67      444        3    -0.20522    2.99230    7.84334    8.07604
      68      444        3    -0.05965    1.85588    8.60550    7.82460
      69      444        3    -0.06193    1.02401    8.02548    6.85220
      70      444        3    -0.19006    1.53859    6.83126    6.36130
      71      444        3     0.69435    3.98902    8.11590    9.12430
      72      444        3     0.71044    0.93931    5.97487    5.32192
      73      444        4     0.19515    5.42539    2.84476    3.78464
      74      444        4     0.20919    8.05211    0.17902    8.50033
      75      444        4     0.19448    9.71465   10.34566   11.53251
      76      444        4     0.20741    7.08068   13.00728    0.72581
      77      444        4     0.19404    4.68068    9.40259    4.05778
      78      444        4     0.20854    2.08334    6.75205   14.87665
      79      444        4     0.19523    0.43481    3.77404   11.84712
      80      444        4     0.20882    3.04052    6.41371    7.10608
      81      444        5    -0.58296    2.68805    0.35199    5.07825
      82      444        5    -0.61798    8.00984    4.14496    3.28043
      83      444        5    -0.58914    9.84308   12.52495    6.21856
      84      444        5    -0.60093    4.84262    0.28391   10.77528
      85      444        5    -0.60697    2.59057    2.27359    3.85332
      86      444        5    -0.60371    8.86600   10.49507    5.88640
      87      444        5    -0.60351    6.61917    1.70477   10.60157
      88      444        5    -0.58724    9.30906    2.58333    4.32026
      89      444        5    -0.58115    2.42089   12.85156   12.84861
      90      444        5    -0.61477    7.13191    9.05664   11.00051
      91      444        5    -0.59059    5.30067    0.63977   13.99057
      92      444        5    -0.59873    0.27919   12.92070    3.00679
      93      444        5    -0.60990    2.55859   10.93127   11.62618
      94      444        5    -0.60329    6.24485    2.68514   13.66145
      95      444        5    -0.60612    8.51435   11.49598    2.82758
      96      444        5    -0.58857    5.83208   10.58019   12.09298
      97      444        5    -0.58168    7.41643    6.93030    2.71769
      98      444        5    -0.61531    2.11397   10.69675    4.59773
      99      444        5    -0.58936    0.28329    5.96481    1.61247
     100      444        5    -0.59770    5.29463    6.84058   12.60006
     101      444        5    -0.60858    7.51881    8.83097    3.97364
     102      444        5    -0.60498    1.22853    3.92027    1.94316
     103      444        5    -0.60378    3.52570    8.27096   12.77957
     104      444        5    -0.58811    0.79544    9.18351    3.51054
     105      444        5    -0.58203    7.70975    6.25348   10.52241
     106      444        5    -0.61669    3.02170    2.48607   12.37466
     107      444        5    -0.58627    4.84341    7.19510    9.38813
     108      444        5    -0.59771    9.84526    6.37466    4.81831
     109      444        5    -0.60694    7.60643    4.33911   11.75805
     110      444        5    -0.60607    3.90185    9.24053    9.71951
     111      444        5    -0.60786    1.57407    4.90846    5.00854
     112      444        5    -0.58731    4.31499    4.01855   11.28489
     113      444        1     1.03829    1.12954   12.40127   20.26885
     114      444        1     1.03570    1.01809    3.40305   19.40157
     115      444        1     1.03940    4.03055    0.76875   28.04580
     116      444        1     1.03434    4.13998    9.76364   27.17478
     117      444        1     1.03927    9.02546    5.84987   18.65493
     118      444        1     1.03550    9.10301    9.99311   19.52262
     119      444        1     1.03502    6.14140    7.35381   26.42810
     120      444        1     1.03284    6.03516    3.20682   27.29732
     121      444        2     0.12552    5.33671   12.82217   21.10004
     122      444        2     0.11513    7.83484    0.54730   20.79951
     123      444        2     0.13639    6.63606   10.23400   22.80405
     124      444        2     0.13728    5.07941   11.35181   24.64023
     125      444        2     0.12577    9.82793    0.36216   28.85971
     126      444        2     0.11620    7.33083   12.63737   28.55409
     127      444        2     0.13720    8.51588    2.96596   30.57845
     128      444        2     0.13645    0.05568    1.86066   16.86889
     129      444        2     0.12506    4.79876    6.25179   17.79128
     130      444        2     0.11496    2.29572    7.12775   18.11016
     131      444        2     0.13630    3.49896    3.64115   16.11681
     132      444        2     0.13718    5.07715    4.75025   29.82967
     133      444        2     0.12530    0.33767    6.92415   25.57706
     134      444        2     0.11496    2.84323    6.04884   25.88895
     135      444        2     0.13574    1.66744    9.53406   23.90115
     136      444        2     0.13667    0.09436    8.44507   22.06261
     137      444        3    -0.19883    4.69187    1.46574   20.05130
     138      444        3    -0.06328    5.62004    0.58978   20.60089
     139      444        3    -0.06358    6.94088    1.04733   20.44041
     140      444        3    -0.18871    7.00280    2.26204   19.76995
     141      444        3     0.72829    3.22224    1.35128   20.02888
     142      444        3     0.70110    8.20041    3.05442   19.46494
     143      444        3    -0.20531    8.00092   11.90416   23.07995
     144      444        3    -0.05961    6.85350   11.15926   23.33268
     145      444        3    -0.06239    6.03071   11.75446   24.30348
     146      444        3    -0.19021    6.56503   12.94094   24.79200
     147      444        3     0.69473    8.99068   11.61740   22.02975
     148      444        3     0.70863    5.97455    0.65589   25.82799
     149      444        3    -0.19687    0.46661   11.72195   27.80721
     150      444        3    -0.06477    9.54559   12.59600   28.35739
     151      444        3    -0.06265    8.22531   12.13873   28.19396
     152      444        3    -0.18869    8.16475   10.92732   27.51771
     153      444        3     0.72866    1.93614   11.84457   27.79516
     154      444        3     0.70077    6.96946   10.13255   27.21176
     155      444        3    -0.20439    7.16400    1.28413   30.85183
     156      444        3    -0.06052    8.29031    2.03808   15.54699
     157      444        3    -0.06352    9.11699    1.45027   16.53157
     158      444        3    -0.18951    8.59316    0.25917   17.01964
     159      444        3     0.69556    6.16959    1.56137   29.80222
     160      444        3     0.70991    9.18765   12.54798   18.05685
     161      444        3    -0.19695    5.44202    8.03418   18.86340
     162      444        3    -0.06455    4.51141    7.16692   18.30369
     163      444        3    -0.06297    3.19063    7.62227   18.47449
     164      444        3    -0.18845    3.13029    8.82674   19.16307
     165      444        3     0.72747    6.91256    7.92111   18.87753
     166      444        3     0.69979    1.93810    9.62461   19.47830
     167      444        3    -0.20505    2.14464    5.32114   15.84335
     168      444        3    -0.05951    3.28719    4.56878   15.58998
     169      444        3    -0.06300    4.12858    5.15933   30.16622
     170      444        3    -0.18913    3.60361    6.35009   29.67820
     171      444        3     0.69587    1.15223    5.04446   16.89498
     172      444        3     0.70707    4.19423    7.21661   28.64339
     173      444        3    -0.19701    9.71018    5.14314   26.65448
     174      444        3    -0.06546    0.62827    6.01055   26.09026
     175      444        3    -0.06280    1.94919    5.55584   26.25704
     176      444        3    -0.18868    2.01161    4.35190   26.94627
     177      444        3     0.72736    8.24095    5.25744   26.67220
     178      444        3     0.69993    3.20885    3.56208   27.25766
     179      444        3    -0.20522    3.00696    7.84387   23.62303
     180      444        3    -0.05965    1.87053    8.60603   23.37159
     181      444        3    -0.06193    1.03866    8.02601   22.39919
     182      444        3    -0.19006    1.55324    6.83180   21.90829
     183      444        3     0.69435    4.00367    8.11643   24.67129
     184      444        3     0.71044    0.95397    5.97541   20.86892
     185      444        4     0.19515    5.44004    2.84530   19.33163
     186      444        4     0.20919    8.06676    0.17955   24.04733
     187      444        4     0.19448    9.72930   10.34620   27.07950
     188      444        4     0.20741    7.09533   13.00781   16.27280
     189      444        4     0.19404    4.69533    9.40313   19.60477
     190      444        4     0.20854    2.09799    6.75259   30.42365
     191      444        4     0.19523    0.44946    3.77458   27.39411
     192      444        4     0.20882    3.05517    6.41425   22.65307
     193      444        5    -0.58296    2.70270    0.35253   20.62525
     194      444        5    -0.61798    8.02449    4.14550   18.82742
     195      444        5    -0.58914    9.85773   12.52549   21.76556
     196      444        5    -0.60093    4.85727    0.28444   26.32227
     197      444        5    -0.60697    2.60522    2.27413   19.40032
     198      444        5    -0.60371    8.88065   10.49560   21.43340
     199      444        5    -0.60351    6.63382    1.70530   26.14857
     200      444        5    -0.58724    9.32371    2.58387   19.86725
     201      444        5    -0.58115    2.43554   12.85209   28.39560
     202      444        5    -0.61477    7.14657    9.05718   26.54750
     203      444        5    -0.59059    5.31532    0.64030   29.53756
     204      444        5    -0.59873    0.29384   12.92123   18.55378
     205      444        5    -0.60990    2.57324   10.93180   27.17317
     206      444        5    -0.60329    6.25950    2.68567   29.20845
     207      444        5    -0.60612    8.52900   11.49652   18.37457
     208      444        5    -0.58857    5.84673   10.58073   27.63997
     209      444        5    -0.58168    7.43108    6.93084   18.26469
     210      444        5    -0.61531    2.12863   10.69729   20.14472
     211      444        5    -0.58936    0.29794    5.96535   17.15947
     212      444        5    -0.59770    5.30928    6.84111   28.14705
     213      444        5    -0.60858    7.53347    8.83150   19.52063
     214      444        5    -0.60498    1.24318    3.92081   17.49015
     215      444        5    -0.60378    3.54035    8.27150   28.32656
     216      444        5    -0.58811    0.81010    9.18404   19.05754
     217      444        5    -0.58203    7.72441    6.25402   26.06940
     218      444        5    -0.61669    3.03636    2.48661   27.92165
     219      444        5    -0.58627    4.85806    7.19564   24.93512
     220      444        5    -0.59771    9.85991    6.37519   20.36530
     221      444        5    -0.60694    7.62108    4.33964   27.30504
     222      444        5    -0.60607    3.91650    9.24107   25.26651
     223      444        5    -0.60786    1.58872    4.90899   20.55553
     224      444        5    -0.58731    4.32964    4.01909   26.83189
     225      444        1     1.03829    1.12131   25.55474    4.72186
     226      444        1     1.03570    1.00986   16.55652    3.85458
     227      444        1     1.03940    4.02232   13.92221   12.49880
     228      444        1     1.03434    4.13175   22.91710   11.62778
     229      444        1     1.03927    9.01723   19.00333    3.10794
     230      444        1     1.03550    9.09478   23.14657    3.97563
     231      444        1     1.03502    6.13317   20.50727   10.88111
     232      444        1     1.03284    6.02693   16.36028   11.75032
     233      444        2     0.12552    5.32848   25.97563    5.55304
     234      444        2     0.11513    7.82661   13.70077    5.25252
     235      444        2     0.13639    6.62783   23.38747    7.25706
     236      444        2     0.13728    5.07119   24.50528    9.09323
     237      444        2     0.12577    9.81970   13.51563   13.31272
     238      444        2     0.11620    7.32260   25.79083   13.00710
     239      444        2     0.13720    8.50765   16.11943   15.03145
     240      444        2     0.13645    0.04746   15.01412    1.32190
     241      444        2     0.12506    4.79054   19.40525    2.24429
     242      444        2     0.11496    2.28749   20.28121    2.56317
     243      444        2     0.13630    3.49074   16.79461    0.56981
     244      444        2     0.13718    5.06893   17.90371   14.28268
     245      444        2     0.12530    0.32944   20.07761   10.03006
     246      444        2     0.11496    2.83500   19.20230   10.34195
     247      444        2     0.13574    1.65922   22.68753    8.35416
     248      444        2     0.13667    0.08614   21.59854    6.51562
     249      444        3    -0.19883    4.68365   14.61921    4.50431
     250      444        3    -0.06328    5.61182   13.74325    5.05389
     251      444        3    -0.06358    6.93266   14.20079    4.89342
     252      444        3    -0.18871    6.99457   15.41550    4.22295
     253      444        3     0.72829    3.21401   14.50474    4.48189
     254      444        3     0.70110    8.19219   16.20789    3.91795
     255      444        3    -0.20531    7.99270   25.05763    7.53295
     256      444        3    -0.05961    6.84528   24.31272    7.78569
     257      444        3    -0.06239    6.02248   24.90792    8.75649
     258      444        3    -0.19021    6.55680   26.09440    9.24500
     259      444        3     0.69473    8.98246   24.77086    6.48275
     260      444        3     0.70863    5.96633   13.80936   10.28099
     261      444        3    -0.19687    0.45838   24.87541   12.26022
     262      444        3    -0.06477    9.53737   25.74946   12.81040
     263      444        3    -0.06265    8.21709   25.29219   12.64697
     264      444        3    -0.18869    8.15652   24.08078   11.97072
     265      444        3     0.72866    1.92791   24.99803   12.24817
     266      444        3     0.70077    6.96123   23.28602   11.66477
     267      444        3    -0.20439    7.15577   14.43759   15.30483
     268      444        3    -0.06052    8.28209   15.19154    0.00000
     269      444        3    -0.06352    9.10877   14.60373    0.98458
     270      444        3    -0.18951    8.58494   13.41263    1.47264
     271      444        3     0.69556    6.16137   14.71483   14.25522
     272      444        3     0.70991    9.17943   25.70145    2.50986
     273      444        3    -0.19695    5.43379   21.18764    3.31641
     274      444        3    -0.06455    4.50319   20.32038    2.75670
     275      444        3    -0.06297    3.18240   20.77574    2.92750
     276      444        3    -0.18845    3.12206   21.98021    3.61608
     277      444        3     0.72747    6.90433   21.07457    3.33054
     278      444        3     0.69979    1.92988   22.77807    3.93131
     279      444        3    -0.20505    2.13642   18.47460    0.29636
     280      444        3    -0.05951    3.27896   17.72224    0.04299
     281      444        3    -0.06300    4.12035   18.31279   14.61923
     282      444        3    -0.18913    3.59538   19.50355   14.13121
     283      444        3     0.69587    1.14400   18.19792    1.34799
     284      444        3     0.70707    4.18600   20.37007   13.09640
     285      444        3    -0.19701    9.70196   18.29661   11.10749
     286      444        3    -0.06546    0.62004   19.16401   10.54327
     287      444        3    -0.06280    1.94096   18.70930   10.71004
     288      444        3    -0.18868    2.00338   17.50536   11.39927
     289      444        3     0.72736    8.23273   18.41090   11.12521
     290      444        3     0.69993    3.20063   16.71554   11.71066
     291      444        3    -0.20522    2.99873   20.99733    8.07604
     292      444        3    -0.05965    1.86231   21.75949    7.82460
     293      444        3    -0.06193    1.03044   21.17947    6.85220
     294      444        3    -0.19006    1.54502   19.98526    6.36130
     295      444        3     0.69435    3.99545   21.26989    9.12430
     296      444        3     0.71044    0.94574   19.12887    5.32192
     297      444        4     0.19515    5.43182   15.99876    3.78464
     298      444        4     0.20919    8.05854   13.33301    8.50033
     299      444        4     0.19448    9.72107   23.49966   11.53251
     300      444        4     0.20741    7.08711   26.16128    0.72581
     301      444        4     0.19404    4.68711   22.55659    4.05778
     302      444        4     0.20854    2.08977   19.90605   14.87665
     303      444        4     0.19523    0.44124   16.92804   11.84712
     304      444        4     0.20882    3.04695   19.56771    7.10608
     305      444        5    -0.58296    2.69448   13.50599    5.07825
     306      444        5    -0.61798    8.01626   17.29896    3.28043
     307      444        5    -0.58914    9.84951   25.67895    6.21856
     308      444        5    -0.60093    4.84905   13.43790   10.77528
     309      444        5    -0.60697    2.59700   15.42759    3.85332
     310      444        5    -0.60371    8.87243   23.64907    5.88640
     311      444        5    -0.60351    6.62560   14.85877   10.60157
     312      444        5    -0.58724    9.31549   15.73733    4.32026
     313      444        5    -0.58115    2.42732   26.00555   12.84861
     314      444        5    -0.61477    7.13834   22.21064   11.00051
     315      444        5    -0.59059    5.30710   13.79376   13.99057
     316      444        5    -0.59873    0.28562   26.07470    3.00679
     317      444        5    -0.60990    2.56501   24.08527   11.62618
     318      444        5    -0.60329    6.25128   15.83913   13.66145
     319      444        5    -0.60612    8.52078   24.64998    2.82758
     320      444        5    -0.58857    5.83851   23.73419   12.09298
     321      444        5    -0.58168    7.42286   20.08430    2.71769
     322      444        5    -0.61531    2.12040   23.85075    4.59773
     323      444        5    -0.58936    0.28971   19.11881    1.61247
     324      444        5    -0.59770    5.30105   19.99458   12.60006
     325      444        5    -0.60858    7.52524   21.98497    3.97364
     326      444        5    -0.60498    1.23496   17.07427    1.94316
     327      444        5    -0.60378    3.53213   21.42496   12.77957
     328      444        5    -0.58811    0.80187   22.33750    3.51054
     329      444        5    -0.58203    7.71618   19.40748   10.52241
     330      444        5    -0.61669    3.02813   15.64007   12.37466
     331      444        5    -0.58627    4.84984   20.34910    9.38813
     332      444        5    -0.59771    9.85169   19.52866    4.81831
     333      444        5    -0.60694    7.61286   17.49310   11.75805
     334      444        5    -0.60607    3.90828   22.39453    9.71951
     335      444        5    -0.60786    1.58050   18.06245    5.00854
     336      444        5    -0.58731    4.32142   17.17255   11.28489
     337      444        1     1.03829    1.13596   25.55527   20.26885
     338      444        1     1.03570    1.02451   16.55705   19.40157
     339      444        1     1.03940    4.03698   13.92275   28.04580
     340      444        1     1.03434    4.14641   22.91763   27.17478
     341      444        1     1.03927    9.03189   19.00387   18.65493
     342      444        1     1.03550    9.10944   23.14710   19.52262
     343      444        1     1.03502    6.14783   20.50781   26.42810
     344      444        1     1.03284    6.04158   16.36082   27.29732
     345      444        2     0.12552    5.34314   25.97616   21.10004
     346      444        2     0.11513    7.84127   13.70130   20.79951
     347      444        2     0.13639    6.64248   23.38800   22.80405
     348      444        2     0.13728    5.08584   24.50581   24.64023
     349      444        2     0.12577    9.83436   13.51616   28.85971
     350      444        2     0.11620    7.33726   25.79137   28.55409
     351      444        2     0.13720    8.52231   16.11996   30.57845
     352      444        2     0.13645    0.06211   15.01466   16.86889
     353      444        2     0.12506    4.80519   19.40579   17.79128
     354      444        2     0.11496    2.30215   20.28175   18.11016
     355      444        2     0.13630    3.50539   16.79515   16.11681
     356      444        2     0.13718    5.08358   17.90425   29.82967
     357      444        2     0.12530    0.34410   20.07814   25.57706
     358      444        2     0.11496    2.84966   19.20283   25.88895
     359      444        2     0.13574    1.67387   22.68806   23.90115
     360      444        2     0.13667    0.10079   21.59907   22.06261
     361      444        3    -0.19883    4.69830   14.61974   20.05130
     362      444        3    -0.06328    5.62647   13.74378   20.60089
     363      444        3    -0.06358    6.94731   14.20133   20.44041
     364      444        3    -0.18871    7.00923   15.41604   19.76995
     365      444        3     0.72829    3.22866   14.50527   20.02888
     366      444        3     0.70110    8.20684   16.20842   19.46494
     367      444        3    -0.20531    8.00735   25.05816   23.07995
     368      444        3    -0.05961    6.85993   24.31326   23.33268
     369      444        3    -0.06239    6.03713   24.90846   24.30348
     370      444        3    -0.19021    6.57145   26.09494   24.79200
     371      444        3     0.69473    8.99711   24.77139   22.02975
     372      444        3     0.70863    5.98098   13.80989   25.82799
     373      444        3    -0.19687    0.47303   24.87594   27.80721
     374      444        3    -0.06477    9.55202   25.74999   28.35739
     375      444        3    -0.06265    8.23174   25.29273   28.19396
     376      444        3    -0.18869    8.17118   24.08131   27.51771
     377      444        3     0.72866    1.94256   24.99856   27.79516
     378      444        3     0.70077    6.97589   23.28655   27.21176
     379      444        3    -0.20439    7.17043   14.43813   30.85183
     380      444        3    -0.06052    8.29674   15.19207   15.54699