Created on Tue Feb 06 14:32:52 2018 

        2880 atoms
        3200 bonds
        5248 angles
        6912 dihedrals
        4608 impropers

           5 atom types
           7 bond types
          14 angle types
           3 dihedral types
           1 improper types
           0.000000  34.010000 xlo xhi
           0.000000  36.716474 ylo yhi
           0.000000  38.735999 zlo zhi
          -7.476725  -0.008789  -0.005239 xy xz yz

Masses

    1   112.411000000 # Cd3+2
    2     1.007940000 # H_
    3    12.010700000 # C_R
    4    14.006700000 # N_R
    5    15.999400000 # O_R

Bond Coeffs

    1      147.192711        2.045725  # Cd3+2 O_R
    2      152.700732        2.089900  # Cd3+2 N_R
    3      357.440381        1.081418  # H_ C_R
    4      646.680887        1.311940  # C_R O_R
    5      391.669513        1.458000  # C_R C_R
    6      462.655054        1.379256  # C_R C_R
    7      663.718927        1.345073  # C_R N_R

Angle Coeffs

    1                      fourier       30.023701        0.343737        0.374972        0.281246 # O_R Cd3+2 O_R
    2                      fourier       31.469575        0.343737        0.374972        0.281246 # O_R Cd3+2 N_R
    3                      fourier       33.010492        0.343737        0.374972        0.281246 # N_R Cd3+2 N_R
    4              cosine/periodic      137.761490              -1               3 # O_R C_R C_R
    5              cosine/periodic      217.450257              -1               3 # O_R C_R O_R
    6              cosine/periodic      101.626578              -1               3 # C_R C_R C_R
    7              cosine/periodic      117.010657              -1               3 # C_R C_R C_R
    8              cosine/periodic       76.817955              -1               3 # H_ C_R C_R
    9              cosine/periodic      143.630586              -1               3 # N_R C_R C_R
   10              cosine/periodic      165.695700              -1               3 # N_R C_R C_R
   11              cosine/periodic      109.704024              -1               3 # N_R C_R H_
   12              cosine/periodic      132.654363              -1               3 # C_R N_R C_R
   13              cosine/periodic       33.294741              -1               3 # Cd3+2 N_R C_R
   14              cosine/periodic       45.673393              -1               3 # C_R O_R Cd3+2

Dihedral Coeffs

    1        2.245703              -1               2 # O_R C_R O_R Cd3+2
    2        0.555556              -1               2 # O_R C_R C_R C_R
    3        1.497136              -1               2 # C_R C_R C_R H_

Improper Coeffs

    1        2.000000        1.000000       -1.000000        0.000000               0 # C_R C_R O_R O_R

Pair Coeffs

    1        0.228000        2.537280 # Cd3+2 Cd3+2
    2        0.044000        2.571134 # H_ H_
    3        0.105000        3.430851 # C_R C_R
    4        0.069000        3.260689 # N_R N_R
    5        0.060000        3.118146 # O_R O_R

Atoms

       1      444        1     0.99660   -1.11868   18.23119    1.10998
       2      444        1     0.99660    7.38323   18.23099    1.10979
       3      444        1     0.99660    4.00855    9.30558   10.79398
       4      444        1     0.99660   12.51057    9.30510   10.79398
       5      444        1     0.99660    5.87619    0.12484   18.26015
       6      444        1     0.99660   14.37938    0.12464   18.26015
       7      444        1     0.99660    0.74865    9.05044    8.57596
       8      444        1     0.99660    9.25149    9.05068    8.57596
       9      444        2     0.09862    6.09123    5.54367    8.18550
      10      444        2     0.09862   14.59318    5.54169    8.18588
      11      444        2     0.09862    5.98739    3.78658    6.40461
      12      444        2     0.09862   14.49074    3.78662    6.40287
      13      444        2     0.09862    2.42266    7.14979    6.60914
      14      444        2     0.09862   10.92598    7.14971    6.60817
      15      444        2     0.09862    5.55336    2.16619    5.05466
      16      444        2     0.09862   14.05601    2.16546    5.05369
      17      444        2     0.09862    5.02626    0.53779    3.26486
      18      444        2     0.09862   13.52816    0.53687    3.26428
      19      444        2     0.09862    1.83170    2.79983    1.91898
      20      444        2     0.09862   10.33304    2.79867    1.91937
      21      444        2     0.09862    2.19451    4.52143    3.68457
      22      444        2     0.09862   10.69700    4.52092    3.68399
      23      444        2     0.09862   -0.82925   10.44847   14.84809
      24      444        2     0.09862    7.67319   10.44917   14.84693
      25      444        2     0.09862   -0.36392   12.16278   16.62685
      26      444        2     0.09862    8.13889   12.16287   16.62627
      27      444        2     0.09862    4.01331   12.53096   14.00074
      28      444        2     0.09862   12.51657   12.53107   13.99938
      29      444        2     0.09862   -0.61453   13.25733   18.54312
      30      444        2     0.09862    7.88831   13.25746   18.54312
      31      444        2     0.09862   -0.34098   15.17869    0.72766
      32      444        2     0.09862    8.16032   15.17814    0.72882
      33      444        2     0.09862   -2.94992   17.53119   17.87279
      34      444        2     0.09862    5.55202   17.53093   17.87434
      35      444        2     0.09862    5.16242   15.70362   16.24840
      36      444        2     0.09862   13.66463   15.70364   16.24801
      37      444        2     0.09862    0.53418    3.63290   17.86756
      38      444        2     0.09862    9.03657    3.63251   17.86795
      39      444        2     0.09862    0.63747    5.38925   16.08590
      40      444        2     0.09862    9.14015    5.38938   16.08687
      41      444        2     0.09862    4.20369    2.02765   16.29217
      42      444        2     0.09862   12.70584    2.02712   16.29217
      43      444        2     0.09862    1.07320    7.01186   14.73730
      44      444        2     0.09862    9.57536    7.01151   14.73789
      45      444        2     0.09862    1.60237    8.64077   12.94867
      46      444        2     0.09862   10.10404    8.64028   12.94886
      47      444        2     0.09862    4.79722    6.37830   11.60434
      48      444        2     0.09862   13.29916    6.37805   11.60453
      49      444        2     0.09862    4.43152    4.65536   13.36799
      50      444        2     0.09862   12.93428    4.65569   13.36779
      51      444        2     0.09862    3.71920   17.08665    5.16390
      52      444        2     0.09862   12.22314   17.08807    5.16545
      53      444        2     0.09862    3.25255   15.37241    6.94227
      54      444        2     0.09862   11.75580   15.37315    6.94343
      55      444        2     0.09862   -1.12491   15.00201    4.31577
      56      444        2     0.09862    7.37866   15.00415    4.31771
      57      444        2     0.09862    3.50114   14.27701    8.85815
      58      444        2     0.09862   12.00422   14.27751    8.85854
      59      444        2     0.09862    3.23199   12.35870   10.41146
      60      444        2     0.09862   11.73328   12.35899   10.41127
      61      444        2     0.09862    5.83710   10.00336    8.18956
      62      444        2     0.09862   14.33911   10.00318    8.19092
      63      444        2     0.09862   -2.27381   11.83050    6.56556
      64      444        2     0.09862    6.22855   11.83123    6.56478
      65      444        2     0.09862   -1.33474   12.81298   11.18502
      66      444        2     0.09862    7.16877   12.81351   11.18463
      67      444        2     0.09862   -1.23035   14.56887   12.96784
      68      444        2     0.09862    7.27141   14.56900   12.96707
      69      444        2     0.09862    2.33486   11.20653   12.75964
      70      444        2     0.09862   10.83692   11.20662   12.76138
      71      444        2     0.09862   -0.79483   16.18979   14.31528
      72      444        2     0.09862    7.70639   16.19054   14.31644
      73      444        2     0.09862   -0.26752   17.81869   16.10449
      74      444        2     0.09862    8.23515   17.81936   16.10546
      75      444        2     0.09862    2.92684   15.55676   17.45115
      76      444        2     0.09862   11.43009   15.55700   17.44999
      77      444        2     0.09862    2.56340   13.83422   15.68653
      78      444        2     0.09862   11.06506   13.83444   15.68556
      79      444        2     0.09862    5.58657    7.90652    4.52398
      80      444        2     0.09862   14.08973    7.90705    4.52340
      81      444        2     0.09862    5.12078    6.19271    2.74483
      82      444        2     0.09862   13.62322    6.19333    2.74425
      83      444        2     0.09862    0.74426    5.82394    5.36958
      84      444        2     0.09862    9.24659    5.82497    5.36997
      85      444        2     0.09862    5.37178    5.09887    0.82740
      86      444        2     0.09862   13.87321    5.09792    0.82701
      87      444        2     0.09862    5.09941    3.17828   18.64170
      88      444        2     0.09862   13.60192    3.17714   18.64131
      89      444        2     0.09862    7.70786    0.82526    1.49579
      90      444        2     0.09862   16.21030    0.82489    1.49618
      91      444        2     0.09862   -0.40459    2.65275    3.12173
      92      444        2     0.09862    8.09807    2.65264    3.12154
      93      444        2     0.09862    4.22310   14.72250    1.50121
      94      444        2     0.09862   12.72638   14.72264    1.50102
      95      444        2     0.09862    4.11988   12.96625    3.28288
      96      444        2     0.09862   12.62282   12.96708    3.28404
      97      444        2     0.09862    0.55457   16.32889    3.07777
      98      444        2     0.09862    9.05777   16.32979    3.07719
      99      444        2     0.09862    3.68485   11.34464    4.63263
     100      444        2     0.09862   12.18684   11.34522    4.63147
     101      444        2     0.09862    3.15531    9.71547    6.42088
     102      444        2     0.09862   11.65873    9.71626    6.42030
     103      444        2     0.09862   -0.03955   11.97814    7.76521
     104      444        2     0.09862    8.46349   11.97799    7.76541
     105      444        2     0.09862    0.32613   13.70080    6.00137
     106      444        2     0.09862    8.82786   13.70051    6.00117
     107      444        2     0.09862    1.03801    1.26808   14.20449
     108      444        2     0.09862    9.54125    1.26887   14.20643
     109      444        2     0.09862    1.50446    2.98317   12.42670
     110      444        2     0.09862   10.00778    2.98307   12.42767
     111      444        2     0.09862    5.88252    3.35223   15.05358
     112      444        2     0.09862   14.38542    3.35280   15.05494
     113      444        2     0.09862    1.25488    4.07791   10.51179
     114      444        2     0.09862    9.75826    4.07787   10.51159
     115      444        2     0.09862    1.52530    5.99635    8.95867
     116      444        2     0.09862   10.02686    5.99576    8.95751
     117      444        2     0.09862   -1.07992    8.35218   11.17998
     118      444        2     0.09862    7.42209    8.35149   11.17940
     119      444        2     0.09862    7.03147    6.52413   12.80496
     120      444        2     0.09862   15.53384    6.52493   12.80573
     121      444        3     0.67456    4.19441    7.50074    8.64607
     122      444        3     0.67456   12.69664    7.49982    8.64607
     123      444        3    -0.07248    4.24995    6.47110    7.55739
     124      444        3    -0.07248   12.75244    6.47011    7.55720
     125      444        3    -0.13907    5.26489    5.51013    7.47527
     126      444        3    -0.13907   13.76726    5.50898    7.47508
     127      444        3    -0.13907    5.19676    4.53162    6.48479
     128      444        3    -0.13907   13.69978    4.53128    6.48363
     129      444        3     0.23288    4.11314    4.53189    5.58980
     130      444        3     0.23288   12.61637    4.53182    5.58844
     131      444        3     0.18940    3.23315    6.42056    6.59422
     132      444        3     0.18940   11.73616    6.42014    6.59287
     133      444        3    -0.07248    3.91409    3.50862    4.53037
     134      444        3    -0.07248   12.41693    3.50827    4.52940
     135      444        3    -0.13907    4.71014    2.36039    4.39344
     136      444        3    -0.13907   13.21266    2.35978    4.39266
     137      444        3     0.18940    4.42280    1.43635    3.39308
     138      444        3     0.18940   12.92490    1.43556    3.39250
     139      444        3     0.18940    2.64320    2.70280    2.63986
     140      444        3     0.18940   11.14502    2.70194    2.63966
     141      444        3    -0.13907    2.86010    3.66506    3.61291
     142      444        3    -0.13907   11.36251    3.66451    3.61233
     143      444        3     0.67456    5.50332   10.39801   13.15978
     144      444        3     0.67456   14.00578   10.39763   13.15959
     145      444        3    -0.07248    5.80983   11.35978   14.28467
     146      444        3    -0.07248   14.31231   11.35932   14.28467
     147      444        3    -0.13907   -1.53203   11.25545   15.05571
     148      444        3    -0.13907    6.97032   11.25588   15.05533
     149      444        3    -0.13907   -1.28491   12.20396   16.04600
     150      444        3    -0.13907    7.21760   12.20407   16.04581
     151      444        3     0.23288   -2.20889   13.24278   16.24549
     152      444        3     0.23288    6.29369   13.24287   16.24568
     153      444        3     0.18940    4.93945   12.42391   14.56493
     154      444        3     0.18940   13.44228   12.42393   14.56415
     155      444        3    -0.07248   -2.00284   14.32020   17.24101
     156      444        3    -0.07248    6.49987   14.32025   17.24101
     157      444        3    -0.13907   -1.14922   14.18616   18.34808
     158      444        3    -0.13907    7.35348   14.18621   18.34731
     159      444        3     0.18940   -0.99472   15.25258   19.22410
     160      444        3     0.18940    7.50719   15.25231   19.22487
     161      444        3     0.18940   -2.45370   16.56988   18.00178
     162      444        3     0.18940    6.04837   16.56966   18.00236
     163      444        3    -0.13907   -2.66982   15.54616   17.09013
     164      444        3    -0.13907    5.83273   15.54614   17.09032
     165      444        3     0.67456    2.43085    1.67530   18.32852
     166      444        3     0.67456   10.93351    1.67519   18.32794
     167      444        3    -0.07248    2.37568    2.70543   17.23946
     168      444        3    -0.07248   10.87816    2.70527   17.23946
     169      444        3    -0.13907    1.36057    3.66624   17.15734
     170      444        3    -0.13907    9.86312    3.66617   17.15811
     171      444        3    -0.13907    1.42854    4.64471   16.16666
     172      444        3    -0.13907    9.93114    4.64472   16.16744
     173      444        3     0.23288    2.51253    4.64494   15.27225
     174      444        3     0.23288   11.01501    4.64488   15.27283
     175      444        3     0.18940    3.39290    2.75658   16.27706
     176      444        3     0.18940   11.89522    2.75627   16.27725
     177      444        3    -0.07248    2.71210    5.66864   14.21340
     178      444        3    -0.07248   11.21456    5.66862   14.21398
     179      444        3    -0.13907    1.91675    6.81743   14.07647
     180      444        3    -0.13907   10.41896    6.81721   14.07705
     181      444        3     0.18940    2.20528    7.74183   13.07534
     182      444        3     0.18940   10.70717    7.74148   13.07708
     183      444        3     0.18940    3.98488    6.47510   12.32425
     184      444        3     0.18940   12.48700    6.47495   12.32463
     185      444        3    -0.13907    3.76658    5.51224   13.29652
     186      444        3    -0.13907   12.26909    5.51234   13.29710
     187      444        3     0.67456   -2.61286   17.13772    3.47675
     188      444        3     0.67456    5.88916   17.13792    3.47675
     189      444        3    -0.07248   -2.91953   16.17557    4.60164
     190      444        3    -0.07248    5.58249   16.17587    4.59990
     191      444        3    -0.13907    4.42181   16.27969    5.37210
     192      444        3    -0.13907   12.92511   16.28026    5.37307
     193      444        3    -0.13907    4.17399   15.33119    6.36200
     194      444        3    -0.13907   12.67698   15.33146    6.36278
     195      444        3     0.23288    5.09762   14.29216    6.56188
     196      444        3     0.23288   13.59989   14.29162    6.56168
     197      444        3     0.18940   -2.05052   15.10999    4.88074
     198      444        3     0.18940    6.45241   15.11131    4.88170
     199      444        3    -0.07248    4.89072   13.21458    7.55546
     200      444        3    -0.07248   13.39298   13.21425    7.55546
     201      444        3    -0.13907    4.03626   13.34835    8.66331
     202      444        3    -0.13907   12.53861   13.34846    8.66369
     203      444        3     0.18940    3.88135   12.28195    9.53990
     204      444        3     0.18940   12.38312   12.28211    9.54010
     205      444        3     0.18940    5.34091   10.96469    8.31778
     206      444        3     0.18940   13.84285   10.96453    8.31856
     207      444        3    -0.13907    5.55772   11.98858    7.40652
     208      444        3    -0.13907   14.05981   11.98810    7.40690
     209      444        3     0.67456    0.56204   10.85548   10.72387
     210      444        3     0.67456    9.06553   10.85572   10.72406
     211      444        3    -0.07248    0.50685   11.88509   11.81274
     212      444        3    -0.07248    9.00987   11.88554   11.81254
     213      444        3    -0.13907   -0.50818   12.84591   11.89583
     214      444        3    -0.13907    7.99499   12.84664   11.89486
     215      444        3    -0.13907   -0.43962   13.82405   12.88669
     216      444        3    -0.13907    8.06245   13.82443   12.88630
     217      444        3     0.23288    0.64456   13.82372   13.78033
     218      444        3     0.23288    9.14592   13.82402   13.78149
     219      444        3     0.18940    1.52421   11.93557   12.77552
     220      444        3     0.18940   10.02649   11.93595   12.77629
     221      444        3    -0.07248    0.84393   14.84705   14.84034
     222      444        3    -0.07248    9.34543   14.84760   14.84034
     223      444        3    -0.13907    0.04826   15.99562   14.97669
     224      444        3    -0.13907    8.54985   15.99619   14.97727
     225      444        3     0.18940    0.33571   16.91993   15.97666
     226      444        3     0.18940    8.83811   16.92046   15.97724
     227      444        3     0.18940    2.11515   15.65346   16.73027
     228      444        3     0.18940   10.61789   15.65379   16.72969
     229      444        3    -0.13907    1.89801   14.69077   15.75761
     230      444        3    -0.13907   10.39988   14.69110   15.75587
     231      444        3     0.67456   -0.74461    7.95769    6.21035
     232      444        3     0.67456    7.75744    7.95821    6.21054
     233      444        3    -0.07248   -1.05172    6.99597    5.08410
     234      444        3    -0.07248    7.45030    6.99628    5.08584
     235      444        3    -0.13907    6.28957    7.09996    4.31558
     236      444        3    -0.13907   14.79230    7.10009    4.31500
     237      444        3    -0.13907    6.04218    6.15163    3.32529
     238      444        3    -0.13907   14.54446    6.15176    3.32471
     239      444        3     0.23288    6.96634    5.11315    3.12503
     240      444        3     0.23288   15.46818    5.11284    3.12464
     241      444        3     0.18940   -0.18192    5.93130    4.80539
     242      444        3     0.18940    8.32055    5.93205    4.80559
     243      444        3    -0.07248    6.76033    4.03599    2.12912
     244      444        3    -0.07248   15.26210    4.03555    2.12912
     245      444        3    -0.13907    5.90659    4.17008    1.02224
     246      444        3    -0.13907   14.40841    4.16938    1.02205
     247      444        3     0.18940    5.75265    3.10399    0.00000
     248      444        3     0.18940   14.25492    3.10320    0.00000
     249      444        3     0.18940    7.21158    1.78655    1.36777
     250      444        3     0.18940   15.71391    1.78611    1.36796
     251      444        3    -0.13907    7.42754    2.81012    2.27961
     252      444        3    -0.13907   15.92956    2.80984    2.27981
     253      444        3     0.67456    2.32630   16.68036    1.04084
     254      444        3     0.67456   10.82985   16.68054    1.04045
     255      444        3    -0.07248    2.38180   15.65031    2.12932
     256      444        3    -0.07248   10.88512   15.65077    2.12932
     257      444        3    -0.13907    3.39669   14.68919    2.20989
     258      444        3    -0.13907   11.89994   14.68967    2.21183
     259      444        3    -0.13907    3.32895   13.71097    3.20231
     260      444        3    -0.13907   11.83179   13.71163    3.20289
     261      444        3     0.23288    2.24542   13.71121    4.09730
     262      444        3     0.23288   10.74775   13.71180    4.09730
     263      444        3     0.18940    1.36504   15.59962    3.09268
     264      444        3     0.18940    9.86808   15.60032    3.09229
     265      444        3    -0.07248    2.04572   12.68756    5.15615
     266      444        3    -0.07248   10.54786   12.68798    5.15596
     267      444        3    -0.13907    2.84114   11.53890    5.29327
     268      444        3    -0.13907   11.34348   11.53940    5.29250
     269      444        3     0.18940    2.55239   10.61443    6.29286
     270      444        3     0.18940   11.05543   10.61496    6.29247
     271      444        3     0.18940    0.77274   11.88118    7.04511
     272      444        3     0.18940    9.27562   11.88123    7.04511
     273      444        3    -0.13907    0.99113   12.84400    6.07303
     274      444        3    -0.13907    9.49332   12.84403    6.07284
     275      444        3     0.67456    7.37185    1.21752   15.89319
     276      444        3     0.67456   15.87424    1.21752   15.89319
     277      444        3    -0.07248    7.67830    2.17999   14.76887
     278      444        3    -0.07248   16.18039    2.17992   14.76868
     279      444        3    -0.13907    0.33569    2.07551   13.98370
     280      444        3    -0.13907    8.83881    2.07602   13.99822
     281      444        3    -0.13907    0.58329    3.02432   13.00735
     282      444        3    -0.13907    9.08639    3.02438   13.00813
     283      444        3     0.23288   -0.34002    4.06385   12.80864
     284      444        3     0.23288    8.16275    4.06344   12.80845
     285      444        3     0.18940    6.80845    3.24469   14.48920
     286      444        3     0.18940   15.31081    3.24504   14.48978
     287      444        3    -0.07248   -0.13347    5.14122   11.81332
     288      444        3    -0.07248    8.36931    5.14076   11.81293
     289      444        3    -0.13907    0.72062    5.00701   10.70663
     290      444        3    -0.13907    9.22339    5.00668   10.70624
     291      444        3     0.18940    0.87565    6.07328    9.83003
     292      444        3     0.18940    9.37782    6.07282    9.82926
     293      444        3     0.18940   -0.58367    7.39087   11.05138
     294      444        3     0.18940    7.91849    7.39025   11.05138
     295      444        3    -0.13907   -0.80012    6.36737   11.96400
     296      444        3    -0.13907    7.70223    6.36671   11.96323
     297      444        4    -0.39297    3.15729    5.48695    5.64170
     298      444        4    -0.39297   11.66043    5.48683    5.64074
     299      444        4    -0.35166    3.40479    1.59367    2.52404
     300      444        4    -0.35166   11.90663    1.59286    2.52384
     301      444        4    -0.39297    5.16309   13.34528   15.50912
     302      444        4    -0.39297   13.66526   13.34498   15.50873
     303      444        4    -0.35166   -1.62326   16.43335   19.05540
     304      444        4    -0.35166    6.87839   16.43293   19.05617
     305      444        4    -0.39297    3.46879    3.69028   15.32474
     306      444        4    -0.39297   11.97112    3.69006   15.32512
     307      444        4    -0.35166    3.22392    7.58463   12.20862
     308      444        4    -0.35166   11.72569    7.58423   12.20881
     309      444        4    -0.39297   -2.27449   14.18862    5.82473
     310      444        4    -0.39297    6.22856   14.18995    5.82589
     311      444        4    -0.35166    4.51003   11.10117    9.37101
     312      444        4    -0.35166   13.01162   11.10121    9.37140
     313      444        4    -0.39297    1.60061   12.86892   13.72823
     314      444        4    -0.39297   10.10212   12.86934   13.72901
     315      444        4    -0.35166    1.35368   16.76267   16.84570
     316      444        4    -0.35166    9.85661   16.76307   16.84551
     317      444        4    -0.39297   -0.40558    5.01047    3.86082
     318      444        4    -0.39297    8.09713    5.01093    3.86120
     319      444        4    -0.35166    6.38121    1.92320    0.31415
     320      444        4    -0.35166   14.88376    1.92262    0.31415
     321      444        4    -0.39297    1.28940   14.66611    4.04404
     322      444        4    -0.39297    9.79180   14.66677    4.04462
     323      444        4    -0.35166    1.53367   10.77161    7.16093
     324      444        4    -0.35166   10.03698   10.77196    7.16093
     325      444        4    -0.39297    7.03247    4.16630   13.54540
     326      444        4    -0.39297   15.53455    4.16675   13.54598
     327      444        4    -0.35166    0.24698    7.25410    9.99873
     328      444        4    -0.35166    8.74902    7.25360    9.99795
     329      444        5    -0.61306    3.16244    8.26137    8.70921
     330      444        5    -0.61306   11.66454    8.26034    8.70882
     331      444        5    -0.59760    5.14484    7.57353    9.48393
     332      444        5    -0.59760   13.64689    7.57281    9.48257
     333      444        5    -0.59760    4.40424   10.66382   12.52897
     334      444        5    -0.59760   12.90672   10.66352   12.52877
     335      444        5    -0.61306    6.28793    9.46027   12.90277
     336      444        5    -0.61306   14.79052    9.46007   12.90238
     337      444        5    -0.61306    3.46231    0.91405   18.39108
     338      444        5    -0.61306   11.96520    0.91429   18.38023
     339      444        5    -0.59760    1.48055    1.60274   19.16657
     340      444        5    -0.59760    9.98303    1.60249   19.16677
     341      444        5    -0.59760   -1.51392   16.87227    2.84555
     342      444        5    -0.59760    6.98788   16.87216    2.84535
     343      444        5    -0.61306   -3.39743   18.07565    3.21896
     344      444        5    -0.61306    5.10477   18.07609    3.22051
     345      444        5    -0.61306    1.59333   10.09386   10.66150
     346      444        5    -0.61306   10.09736   10.09491   10.66131
     347      444        5    -0.59760   -0.38795   10.78325    9.88562
     348      444        5    -0.59760    8.11576   10.78343    9.88562
     349      444        5    -0.59760    0.35494    7.69215    6.84039
     350      444        5    -0.59760    8.85688    7.69253    6.84078
     351      444        5    -0.61306   -1.52901    8.89551    6.46794
     352      444        5    -0.61306    6.97326    8.89626    6.46775
     353      444        5    -0.61306    1.29385   17.44032    0.97712
     354      444        5    -0.61306    9.79768   17.44087    0.97692
     355      444        5    -0.59760    3.27704   16.75352    0.20317
     356      444        5    -0.59760   11.78052   16.75331    0.20298
     357      444        5    -0.59760    6.27349    1.48344   16.52478
     358      444        5    -0.59760   14.77565    1.48313   16.52478
     359      444        5    -0.61306    8.15649    0.27949   16.14904
     360      444        5    -0.61306   16.65877    0.27930   16.14865
     361      444        1     0.99660   -1.12307   18.22858   20.47798
     362      444        1     0.99660    7.37884   18.22837   20.47779
     363      444        1     0.99660    4.00415    9.30296   30.16198
     364      444        1     0.99660   12.50617    9.30248   30.16198
     365      444        1     0.99660    5.87180    0.12222   37.62815
     366      444        1     0.99660   14.37499    0.12202   37.62815
     367      444        1     0.99660    0.74425    9.04782   27.94396
     368      444        1     0.99660    9.24709    9.04806   27.94396
     369      444        2     0.09862    6.08684    5.54105   27.55350
     370      444        2     0.09862   14.58879    5.53907   27.55388
     371      444        2     0.09862    5.98300    3.78397   25.77261
     372      444        2     0.09862   14.48634    3.78400   25.77087
     373      444        2     0.09862    2.41827    7.14717   25.97714
     374      444        2     0.09862   10.92158    7.14709   25.97617
     375      444        2     0.09862    5.54897    2.16357   24.42266