Created on Tue Feb 06 15:01:19 2018 

        3520 atoms
        3968 bonds
        6656 angles
        9472 dihedrals
        6144 impropers

           5 atom types
           8 bond types
          17 angle types
           3 dihedral types
           1 improper types
           0.000000  34.630000 xlo xhi
           0.000000  38.454930 ylo yhi
           0.000000  44.736000 zlo zhi
          -3.343406  -0.001562  -0.000136 xy xz yz

Masses

    1   112.411000000 # Cd3+2
    2     1.007940000 # H_
    3    12.010700000 # C_R
    4    14.006700000 # N_R
    5    15.999400000 # O_R

Bond Coeffs

    1      147.192711        2.045725  # Cd3+2 O_R
    2      152.700732        2.089900  # Cd3+2 N_R
    3      357.440381        1.081418  # H_ C_R
    4      646.680887        1.311940  # C_R O_R
    5      391.669513        1.458000  # C_R C_R
    6      462.655054        1.379256  # C_R C_R
    7      663.718927        1.345073  # C_R N_R
    8      561.491352        1.422196  # C_R N_R

Angle Coeffs

    1                      fourier       31.469575        0.343737        0.374972        0.281246 # O_R Cd3+2 N_R
    2                      fourier       33.010492        0.343737        0.374972        0.281246 # N_R Cd3+2 N_R
    3                      fourier       30.023701        0.343737        0.374972        0.281246 # O_R Cd3+2 O_R
    4              cosine/periodic      137.761490              -1               3 # O_R C_R C_R
    5              cosine/periodic      217.450257              -1               3 # O_R C_R O_R
    6              cosine/periodic      101.626578              -1               3 # C_R C_R C_R
    7              cosine/periodic      117.010657              -1               3 # C_R C_R C_R
    8              cosine/periodic       76.817955              -1               3 # H_ C_R C_R
    9              cosine/periodic      225.881601              -1               3 # N_R C_R O_R
   10              cosine/periodic      165.695700              -1               3 # N_R C_R C_R
   11              cosine/periodic      159.232501              -1               3 # C_R C_R O_R
   12              cosine/periodic      109.704024              -1               3 # N_R C_R H_
   13              cosine/periodic      144.106216              -1               3 # C_R C_R N_R
   14              cosine/periodic       33.294741              -1               3 # C_R N_R Cd3+2
   15              cosine/periodic      132.654363              -1               3 # C_R N_R C_R
   16              cosine/periodic      115.144329              -1               3 # C_R N_R C_R
   17              cosine/periodic       45.673393              -1               3 # C_R O_R Cd3+2

Dihedral Coeffs

    1        2.245703              -1               2 # O_R C_R O_R Cd3+2
    2        0.555556              -1               2 # O_R C_R C_R C_R
    3        1.497136              -1               2 # C_R C_R C_R H_

Improper Coeffs

    1        2.000000        1.000000       -1.000000        0.000000               0 # C_R C_R O_R O_R

Pair Coeffs

    1        0.228000        2.537280 # Cd3+2 Cd3+2
    2        0.044000        2.571134 # H_ H_
    3        0.105000        3.430851 # C_R C_R
    4        0.069000        3.260689 # N_R N_R
    5        0.060000        3.118146 # O_R O_R

Atoms

       1      444        1     0.98062    5.95248    0.23205    9.92602
       2      444        1     0.98062   14.61001    0.23208    9.92602
       3      444        1     0.98062    1.86832    9.38111   21.11002
       4      444        1     0.98062   10.52580    9.38113   21.11002
       5      444        1     0.98062    1.03266   18.99462   12.44175
       6      444        1     0.98062    9.69017   18.99464   12.44175
       7      444        1     0.98062    5.11679    9.84563    1.25775
       8      444        1     0.98062   13.77432    9.84567    1.25775
       9      444        2     0.11374    0.18457    3.00647   10.02511
      10      444        2     0.11374    8.84204    3.00651   10.02511
      11      444        2     0.11374    8.21505    4.76735    8.33096
      12      444        2     0.11374   16.87257    4.76727    8.33096
      13      444        2     0.11374    4.17700    2.77161    8.39739
      14      444        2     0.11374   12.83449    2.77171    8.39739
      15      444        2     0.11374    2.68559    9.72388    3.38652
      16      444        2     0.11374   11.34312    9.72395    3.38652
      17      444        2     0.11374    1.84011    8.27733    5.24552
      18      444        2     0.11374   10.49762    8.27743    5.24552
      19      444        2     0.11374    4.69642    5.28400    3.96629
      20      444        2     0.11374   13.35392    5.28408    3.96629
      21      444        2     0.11374    5.41578    6.84864    2.19452
      22      444        2     0.11374   14.07327    6.84870    2.19452
      23      444        2     0.11374    1.12853    0.54775    6.96517
      24      444        2     0.11374    9.78609    0.54785    6.96540
      25      444        2     0.11374    2.57829    1.53180    5.12988
      26      444        2     0.11374   11.23586    1.53184    5.12988
      27      444        2     0.11374    6.54179    3.16601    5.91745
      28      444        2     0.11374   15.19929    3.16605    5.91745
      29      444        2     0.11374    2.53723    6.33877   21.57998
      30      444        2     0.11374   11.19481    6.33881   21.57998
      31      444        2     0.11374    2.18276    4.46592    0.81420
      32      444        2     0.11374   10.84033    4.46592    0.81420
      33      444        2     0.11374   -0.46237    7.08791    3.02594
      34      444        2     0.11374    8.19511    7.08787    3.02415
      35      444        2     0.11374   -0.01822    8.83107    1.33671
      36      444        2     0.11374    8.63927    8.83106    1.33671
      37      444        2     0.11374    7.63664    6.60730   21.20710
      38      444        2     0.11374   16.29411    6.60728   21.20889
      39      444        2     0.11374   -0.39378    4.84651   19.51451
      40      444        2     0.11374    8.26372    4.84649   19.51451
      41      444        2     0.11374    3.64407    6.84167   19.58117
      42      444        2     0.11374   12.30155    6.84163   19.58095
      43      444        2     0.11374    3.46338   19.11598   14.57052
      44      444        2     0.11374   12.12096   19.11602   14.57096
      45      444        2     0.11374    5.98057    1.33562   16.42930
      46      444        2     0.11374   14.63815    1.33566   16.42997
      47      444        2     0.11374    3.12540    4.32952   15.14314
      48      444        2     0.11374   11.78287    4.32948   15.14985
      49      444        2     0.11374    2.40608    2.76477   13.37785
      50      444        2     0.11374   11.06354    2.76475   13.37785
      51      444        2     0.11374    6.69286    9.06614   18.14828
      52      444        2     0.11374   15.35028    9.06606   18.14850
      53      444        2     0.11374    5.24324    8.08216   16.31276
      54      444        2     0.11374   13.90069    8.08212   16.31298
      55      444        2     0.11374    1.27932    6.44719   17.10145
      56      444        2     0.11374    9.93684    6.44713   17.10145
      57      444        2     0.11374    5.28450    3.27487   10.39508
      58      444        2     0.11374   13.94200    3.27489   10.39508
      59      444        2     0.11374    5.63950    5.14777   11.99730
      60      444        2     0.11374   14.29698    5.14779   11.99730
      61      444        2     0.11374    8.28299    2.52512   14.21017
      62      444        2     0.11374   16.94057    2.52522   14.21017
      63      444        2     0.11374    7.83899    0.78198   12.52094
      64      444        2     0.11374   16.49655    0.78206   12.52094
      65      444        2     0.11374    6.80069   16.22019   12.34244
      66      444        2     0.11374   15.45819   16.22019   12.34244
      67      444        2     0.11374   -1.22983   14.45936   14.03659
      68      444        2     0.11374    7.42767   14.45934   14.03659
      69      444        2     0.11374    2.80827   16.45505   13.96882
      70      444        2     0.11374   11.46575   16.45505   13.97016
      71      444        2     0.11374    4.29949    9.50277   18.98126
      72      444        2     0.11374   12.95696    9.50277   18.97925
      73      444        2     0.11374    5.14498   10.94926   17.12047
      74      444        2     0.11374   13.80248   10.94926   17.12047
      75      444        2     0.11374    2.28889   13.94274   18.39992
      76      444        2     0.11374   10.94641   13.94276   18.39992
      77      444        2     0.11374    1.56951   12.37816   20.17325
      78      444        2     0.11374   10.22701   12.37816   20.17325
      79      444        2     0.11374    5.85664   18.67907   15.40238
      80      444        2     0.11374   14.51412   18.67905   15.40238
      81      444        2     0.11374    4.40689   17.69508   17.23790
      82      444        2     0.11374   13.06439   17.69508   17.23790
      83      444        2     0.11374    0.44334   16.06071   16.45010
      84      444        2     0.11374    9.10086   16.06067   16.45010
      85      444        2     0.11374    4.44805   12.88805    0.78780
      86      444        2     0.11374   13.10556   12.88809    0.78780
      87      444        2     0.11374    4.80252   14.76090   21.55358
      88      444        2     0.11374   13.46005   14.76096   21.55358
      89      444        2     0.11374    7.44743   12.13882   19.34183
      90      444        2     0.11374   16.10494   12.13886   19.34183
      91      444        2     0.11374    7.00327   10.39567   21.03084
      92      444        2     0.11374   15.66079   10.39571   21.03084
      93      444        2     0.11374   -0.65145   12.61929    1.15889
      94      444        2     0.11374    8.00604   12.61944    1.15889
      95      444        2     0.11374    7.37891   14.38017    2.85304
      96      444        2     0.11374   16.03641   14.37996    2.85326
      97      444        2     0.11374    3.34115   12.38500    2.78638
      98      444        2     0.11374   11.99861   12.38511    2.78638
      99      444        2     0.11374    3.52191    0.11073    7.79637
     100      444        2     0.11374   12.17942    0.11084    7.79637
     101      444        2     0.11374    1.00469   17.89102    5.93736
     102      444        2     0.11374    9.66218   17.89116    5.93759
     103      444        2     0.11374    3.85952   14.89698    7.21815
     104      444        2     0.11374   12.51708   14.89713    7.21815
     105      444        2     0.11374    4.57889   16.46178    8.98992
     106      444        2     0.11374   13.23645   16.46189    8.98992
     107      444        2     0.11374    0.29219   10.16047    4.21950
     108      444        2     0.11374    8.94987   10.16076    4.21905
     109      444        2     0.11374    1.74179   11.14443    6.05502
     110      444        2     0.11374   10.39940   11.14457    6.05479
     111      444        2     0.11374    5.70580   12.77960    5.26610
     112      444        2     0.11374   14.36325   12.77956    5.26632
     113      444        2     0.11374    1.70031   15.95170   11.97135
     114      444        2     0.11374   10.35808   15.95182   11.97270
     115      444        2     0.11374    1.34533   14.07878   10.37070
     116      444        2     0.11374   10.00308   14.07890   10.37048
     117      444        2     0.11374   -1.29779   16.70155    8.15739
     118      444        2     0.11374    7.35963   16.70153    8.15761
     119      444        2     0.11374   -0.85380   18.44470    9.84639
     120      444        2     0.11374    7.80365   18.44468    9.84684
     121      444        3     0.62841    2.51699    1.72496   10.33648
     122      444        3     0.62841   11.17451    1.72504   10.33648
     123      444        3    -0.11088    2.20100    2.80245    9.32902
     124      444        3    -0.11088   10.85851    2.80255    9.32902
     125      444        3    -0.11981    0.91414    3.37197    9.30531
     126      444        3    -0.11981    9.57163    3.37205    9.30531
     127      444        3    -0.11981    0.56495    4.35448    8.37167
     128      444        3    -0.11981    9.22245    4.35453    8.37167
     129      444        3    -0.11088    1.55087    4.77520    7.48590
     130      444        3    -0.11088   10.20837    4.77527    7.48590
     131      444        3    -0.11088    2.83635    4.22515    7.52124
     132      444        3    -0.11088   11.49384    4.22525    7.52124
     133      444        3    -0.11981    3.18489    3.22400    8.41708
     134      444        3    -0.11981   11.84238    3.22409    8.41708
     135      444        3     0.50456    3.66669    4.87401    6.48448
     136      444        3     0.50456   12.32419    4.87407    6.48448
     137      444        3     0.50456    1.48682    5.77410    6.39166
     138      444        3     0.50456   10.14432    5.77422    6.39166
     139      444        3     0.19611    3.09791    8.73028    3.55920
     140      444        3     0.19611   11.75542    8.73034    3.55920
     141      444        3    -0.11981    2.63494    7.92743    4.59327
     142      444        3    -0.11981   11.29243    7.92751    4.59327
     143      444        3     0.26597    3.20850    6.65800    4.76438
     144      444        3     0.26597   11.86599    6.65807    4.76438
     145      444        3    -0.11981    4.21401    6.24995    3.88130
     146      444        3    -0.11981   12.87150    6.25003    3.88130
     147      444        3     0.19611    4.62023    7.12705    2.88502
     148      444        3     0.19611   13.27774    7.12713    2.88502
     149      444        3     0.62841    7.33252    1.24736    7.71607
     150      444        3     0.62841   15.99005    1.24742    7.71607
     151      444        3    -0.11088    8.10424    1.79206    6.53571
     152      444        3    -0.11088   16.76172    1.79206    6.53571
     153      444        3    -0.11981    0.75427    1.32810    6.30487
     154      444        3    -0.11981    9.41180    1.32814    6.30487
     155      444        3    -0.11981    1.55400    1.86672    5.29361
     156      444        3    -0.11981   10.21157    1.86678    5.29361
     157      444        3    -0.11088    1.00018    2.87382    4.51073
     158      444        3    -0.11088    9.65773    2.87384    4.51073
     159      444        3    -0.11088    8.34437    3.31642    4.71092
     160      444        3    -0.11088   17.00187    3.31642    4.71092
     161      444        3    -0.11981    7.54594    2.79341    5.72084
     162      444        3    -0.11981   16.20344    2.79343    5.71950
     163      444        3     0.50456    1.62269    3.66344    3.42566
     164      444        3     0.50456   10.28019    3.66340    3.42566
     165      444        3     0.50456    8.05537    4.39043    3.73031
     166      444        3     0.50456   16.71285    4.39041    3.72875
     167      444        3     0.19611    1.87814    6.45851    0.00000
     168      444        3     0.19611   10.53571    6.45851    0.00000
     169      444        3    -0.11981    1.67423    5.41432    0.95847
     170      444        3    -0.11981   10.33178    5.41432    0.95847
     171      444        3     0.26597    0.82538    5.62268    2.05629
     172      444        3     0.26597    9.48290    5.62266    2.05629
     173      444        3    -0.11981    0.20038    6.86935    2.19363
     174      444        3    -0.11981    8.85788    6.86933    2.19363
     175      444        3     0.19611    0.45661    7.85511    1.24724
     176      444        3     0.19611    9.11413    7.85509    1.24724
     177      444        3     0.62841    5.30393    7.88829   21.52025
     178      444        3     0.62841   13.96141    7.88829   21.52025
     179      444        3    -0.11088    5.62009    6.81098   20.51280
     180      444        3    -0.11088   14.27758    6.81098   20.51280
     181      444        3    -0.11981    6.90704    6.24165   20.48886
     182      444        3    -0.11981   15.56453    6.24165   20.48886
     183      444        3    -0.11981    7.25630    5.25925   19.55411
     184      444        3    -0.11981   15.91379    5.25923   19.55545
     185      444        3    -0.11088    6.27037    4.83838   18.66967
     186      444        3    -0.11088   14.92787    4.83836   18.66967
     187      444        3    -0.11088    4.98482    5.38827   18.70502
     188      444        3    -0.11088   13.64232    5.38825   18.70502
     189      444        3    -0.11981    4.63620    6.38934   19.60085
     190      444        3    -0.11981   13.29370    6.38934   19.60085
     191      444        3     0.50456    4.15450    4.73936   17.66826
     192      444        3     0.50456   12.81199    4.73930   17.66826
     193      444        3     0.50456    6.33437    3.83923   17.57566
     194      444        3     0.50456   14.99190    3.83927   17.57566
     195      444        3     0.19611    4.72311    0.88277   14.74342
     196      444        3     0.19611   13.38066    0.88278   14.74342
     197      444        3    -0.11981    5.18603    1.68564   15.77772
     198      444        3    -0.11981   13.84358    1.68566   15.77615
     199      444        3     0.26597    4.61274    2.95525   15.94928
     200      444        3     0.26597   13.27028    2.95525   15.94928
     201      444        3    -0.11981    3.60756    3.36341   15.06485
     202      444        3    -0.11981   12.26506    3.36340   15.06485
     203      444        3     0.19611    3.20137    2.48628   14.06858
     204      444        3     0.19611   11.85887    2.48626   14.06880
     205      444        3     0.62841    0.48849    8.36608   18.89984
     206      444        3     0.62841    9.14600    8.36604   18.89984
     207      444        3    -0.11088   -0.28303    7.82147   17.71948
     208      444        3    -0.11088    8.37451    7.82147   17.71948
     209      444        3    -0.11981    7.06710    8.28566   17.48820
     210      444        3    -0.11981   15.72456    8.28564   17.48820
     211      444        3    -0.11981    6.26740    7.74698   16.47672
     212      444        3    -0.11981   14.92486    7.74693   16.47694
     213      444        3    -0.11088    6.82118    6.73966   15.69428
     214      444        3    -0.11088   15.47866    6.73966   15.69428
     215      444        3    -0.11088   -0.52309    6.29695   15.89470
     216      444        3    -0.11088    8.13443    6.29691   15.89470
     217      444        3    -0.11981    0.27527    6.81997   16.90484
     218      444        3    -0.11981    8.93279    6.81991   16.90484
     219      444        3     0.50456    6.19868    5.95001   14.60921
     220      444        3     0.50456   14.85621    5.95007   14.60921
     221      444        3     0.50456   -0.23412    5.22277   14.91409
     222      444        3     0.50456    8.42341    5.22277   14.91409
     223      444        3     0.19611    5.94392    3.15504   11.25267
     224      444        3     0.19611   14.60144    3.15508   11.25267
     225      444        3    -0.11981    6.14764    4.19920   12.14202
     226      444        3    -0.11981   14.80513    4.19924   12.14202
     227      444        3     0.26597    6.99599    3.99062   13.24007
     228      444        3     0.26597   15.65350    3.99068   13.23962
     229      444        3    -0.11981    7.62060    2.74381   13.37763
     230      444        3    -0.11981   16.27814    2.74387   13.37763
     231      444        3     0.19611    7.36443    1.75808   12.43124
     232      444        3     0.19611   16.02200    1.75814   12.43124
     233      444        3     0.62841    4.46817   17.50165   12.03130
     234      444        3     0.62841   13.12568   17.50167   12.03130
     235      444        3    -0.11088    4.78422   16.42418   13.03853
     236      444        3    -0.11088   13.44174   16.42420   13.03853
     237      444        3    -0.11981    6.07110   15.85468   13.06246
     238      444        3    -0.11981   14.72862   15.85468   13.06246
     239      444        3    -0.11981    6.42028   14.87217   13.99588
     240      444        3    -0.11981   15.07778   14.87217   13.99588
     241      444        3    -0.11088    5.43438   14.45143   14.88165
     242      444        3    -0.11088   14.09188   14.45143   14.88165
     243      444        3    -0.11088    4.14890   15.00149   14.84654
     244      444        3    -0.11088   12.80640   15.00149   14.84654
     245      444        3    -0.11981    3.80036   16.00263   13.95070
     246      444        3    -0.11981   12.45786   16.00265   13.95070
     247      444        3     0.50456    3.31855   14.35270   15.88128
     248      444        3     0.50456   11.97604   14.35268   15.88307
     249      444        3     0.50456    5.49838   13.45241   15.97590
     250      444        3     0.50456   14.15590   13.45245   15.97590
     251      444        3     0.19611    3.88722   10.49641   18.80701
     252      444        3     0.19611   12.54473   10.49639   18.80701
     253      444        3    -0.11981    4.35021   11.29922   17.77428
     254      444        3    -0.11981   13.00771   11.29922   17.77428
     255      444        3     0.26597    3.77670   12.56867   17.60227
     256      444        3     0.26597   12.43422   12.56867   17.60227
     257      444        3    -0.11981    2.77126   12.97677   18.48648
     258      444        3    -0.11981   11.42877   12.97677   18.48648
     259      444        3     0.19611    2.36501   12.09971   19.48275
     260      444        3     0.19611   11.02251   12.09971   19.48275
     261      444        3     0.62841   -0.34739   17.97946   14.65171
     262      444        3     0.62841    8.31011   17.97946   14.65171
     263      444        3    -0.11088   -1.11909   17.43476   15.83185
     264      444        3    -0.11088    7.53843   17.43474   15.83185
     265      444        3    -0.11981    6.23090   17.89872   16.06291
     266      444        3    -0.11981   14.88840   17.89874   16.06291
     267      444        3    -0.11981    5.43115   17.36006   17.07417
     268      444        3    -0.11981   14.08864   17.36006   17.07417
     269      444        3    -0.11088    5.98496   16.35294   17.85682
     270      444        3    -0.11088   14.64246   16.35296   17.85682
     271      444        3    -0.11088   -1.35923   15.91035   17.65663
     272      444        3    -0.11088    7.29829   15.91031   17.65663
     273      444        3    -0.11981   -0.56080   16.43336   16.64671
     274      444        3    -0.11981    8.09672   16.43334   16.64671
     275      444        3     0.50456    5.36250   15.56340   18.94122
     276      444        3     0.50456   14.02001   15.56344   18.94212
     277      444        3     0.50456   -1.07024   14.83630   18.63702
     278      444        3     0.50456    7.58728   14.83628   18.63746
     279      444        3     0.19611    5.10705   12.76830   22.29844
     280      444        3     0.19611   13.76458   12.76833   22.29844
     281      444        3    -0.11981    5.31098   13.81248   21.40908
     282      444        3    -0.11981   13.96851   13.81252   21.40908
     283      444        3     0.26597    6.15977   13.60408   20.31149
     284      444        3     0.26597   14.81729   13.60412   20.31149
     285      444        3    -0.11981    6.78471   12.35739   20.17415
     286      444        3    -0.11981   15.44222   12.35743   20.17415
     287      444        3     0.19611    6.52848   11.37164   21.12031
     288      444        3     0.19611   15.18599   11.37167   21.12031
     289      444        3     0.62841    1.68122   11.33836    0.84730
     290      444        3     0.62841   10.33873   11.33845    0.84730
     291      444        3    -0.11088    1.36508   12.41561    1.85431
     292      444        3    -0.11088   10.02258   12.41576    1.85475
     293      444        3    -0.11981    0.07811   12.98490    1.87891
     294      444        3    -0.11981    8.73563   12.98507    1.87869
     295      444        3    -0.11981   -0.27114   13.96730    2.81233
     296      444        3    -0.11981    8.38636   13.96748    2.81233
     297      444        3    -0.11088    0.71479   14.38815    3.69810
     298      444        3    -0.11088    9.37229   14.38834    3.69810
     299      444        3    -0.11088    2.00034   13.83830    3.66276
     300      444        3    -0.11088   10.65785   13.83846    3.66276
     301      444        3    -0.11981    2.34897   12.83725    2.76692
     302      444        3    -0.11981   11.00646   12.83740    2.76692
     303      444        3     0.50456    2.83068   14.48730    4.69929
     304      444        3     0.50456   11.48816   14.48740    4.69929
     305      444        3     0.50456    0.65073   15.38721    4.79212
     306      444        3     0.50456    9.30824   15.38744    4.79212
     307      444        3     0.19611    2.26209   18.34390    7.62413
     308      444        3     0.19611   10.91960   18.34402    7.62413
     309      444        3    -0.11981    1.79916   17.54097    6.59006
     310      444        3    -0.11981   10.45666   17.54112    6.59006
     311      444        3     0.26597    2.37235   16.27132    6.41850
     312      444        3     0.26597   11.02987   16.27147    6.41827
     313      444        3    -0.11981    3.37745   15.86312    7.30293
     314      444        3    -0.11981   12.03498   15.86327    7.30293
     315      444        3     0.19611    3.78366   16.74029    8.29853
     316      444        3     0.19611   12.44121   16.74041    8.29898
     317      444        3     0.62841    6.49658   10.86066    3.46793
     318      444        3     0.62841   15.15412   10.86074    3.46704
     319      444        3    -0.11088    7.26813   11.40528    4.64829
     320      444        3    -0.11088   15.92559   11.40522    4.64829
     321      444        3    -0.11981   -0.08205   10.94097    4.87958
     322      444        3    -0.11981    8.57556   10.94110    4.87958
     323      444        3    -0.11981    0.71761   11.47961    5.89106
     324      444        3    -0.11981    9.37528   11.47987    5.88949
     325      444        3    -0.11088    0.16385   12.48695    6.67349
     326      444        3    -0.11088    8.82148   12.48710    6.67327
     327      444        3    -0.11088    7.50819   12.92982    6.47308
     328      444        3    -0.11088   16.16563   12.92972    6.47308
     329      444        3    -0.11981    6.70984   12.40677    5.46294
     330      444        3    -0.11981   15.36731   12.40674    5.46294
     331      444        3     0.50456    0.78638   13.27668    7.75834
     332      444        3     0.50456    9.44387   13.27660    7.75856
     333      444        3     0.50456    7.21926   14.00407    7.45346
     334      444        3     0.50456   15.87665   14.00388    7.45369
     335      444        3     0.19611    1.04097   16.07155   11.11511
     336      444        3     0.19611    9.69866   16.07163   11.11488
     337      444        3    -0.11981    0.83728   15.02739   10.22598
     338      444        3    -0.11981    9.49496   15.02746   10.22575
     339      444        3     0.26597   -0.01094   15.23601    9.12771
     340      444        3     0.26597    8.64661   15.23603    9.12771
     341      444        3    -0.11981   -0.63547   16.48285    8.99015
     342      444        3    -0.11981    8.02202   16.48285    8.99015
     343      444        3     0.19611   -0.37933   17.46858    9.93587
     344      444        3     0.19611    8.27818   17.46860    9.93654
     345      444        4    -0.35402    4.07737    8.34873    2.71548
     346      444        4    -0.35402   12.73489    8.34879    2.71548
     347      444        4    -0.27957    2.79807    5.80554    5.81635
     348      444        4    -0.27957   11.45558    5.80564    5.81635
     349      444        4    -0.27957    0.62628    4.60362    3.01297
     350      444        4    -0.27957    9.28380    4.60360    3.01297
     351      444        4    -0.35402    1.29075    7.66580    0.20422
     352      444        4    -0.35402    9.94829    7.66580    0.20422
     353      444        4    -0.35402    3.74396    1.26445   13.89948
     354      444        4    -0.35402   12.40148    1.26445   13.89948
     355      444        4    -0.27957    5.02313    3.80776   17.00035
     356      444        4    -0.27957   13.68064    3.80776   17.00035
     357      444        4    -0.27957    7.19502    5.00969   14.19675
     358      444        4    -0.27957   15.85254    5.00975   14.19675
     359      444        4    -0.35402    6.53071    1.94755   11.38777
     360      444        4    -0.35402   15.18826    1.94761   11.38777
     361      444        4    -0.35402    2.90780   10.87801   19.65230
     362      444        4    -0.35402   11.56530   10.87801   19.65230
     363      444        4    -0.27957    4.18714   13.42109   16.55120
     364      444        4    -0.27957   12.84463   13.42110   16.55120
     365      444        4    -0.27957    6.35886   14.62314   19.35481
     366      444        4    -0.27957   15.01637   14.62318   19.35481
     367      444        4    -0.35402    5.69437   11.56098   22.16356
     368      444        4    -0.35402   14.35190   11.56100   22.16356
     369      444        4    -0.35402    3.24117   17.96220    8.46830
     370      444        4    -0.35402   11.89870   17.96229    8.46629