Created on Tue Feb 06 14:53:11 2018 

        3776 atoms
        4608 bonds
        8448 angles
        9984 dihedrals
        6144 impropers

           4 atom types
           5 bond types
           8 angle types
           3 dihedral types
           1 improper types
           0.000000  40.594000 xlo xhi
           0.000000  40.836444 ylo yhi
           0.000000  35.514306 zlo zhi
         -20.322938   0.041674  -6.897827 xy xz yz

Masses

    1   112.411000000 # Cd3+2
    2     1.007940000 # H_
    3    12.010700000 # C_R
    4    15.999400000 # O_R

Bond Coeffs

    1      147.192711        2.045725  # Cd3+2 O_R
    2      357.440381        1.081418  # H_ C_R
    3      462.655054        1.379256  # C_R C_R
    4      391.669513        1.458000  # C_R C_R
    5      646.680887        1.311940  # C_R O_R

Angle Coeffs

    1                      fourier       30.023701        0.343737        0.374972        0.281246 # O_R Cd3+2 O_R
    2              cosine/periodic       76.817955              -1               3 # H_ C_R C_R
    3              cosine/periodic      117.010657              -1               3 # C_R C_R C_R
    4              cosine/periodic      217.450257              -1               3 # O_R C_R O_R
    5              cosine/periodic      137.761490              -1               3 # C_R C_R O_R
    6              cosine/periodic      101.626578              -1               3 # C_R C_R C_R
    7              cosine/periodic       45.673393              -1               3 # C_R O_R Cd3+2
    8              cosine/periodic       15.251616              -1               3 # Cd3+2 O_R Cd3+2

Dihedral Coeffs

    1        1.497136              -1               2 # C_R C_R C_R C_R
    2        0.555556              -1               2 # O_R C_R C_R C_R
    3        2.245703              -1               2 # O_R C_R O_R Cd3+2

Improper Coeffs

    1        2.000000        1.000000       -1.000000        0.000000               0 # C_R C_R H_ C_R

Pair Coeffs

    1        0.228000        2.537280 # Cd3+2 Cd3+2
    2        0.044000        2.571134 # H_ H_
    3        0.105000        3.430851 # C_R C_R
    4        0.060000        3.118146 # O_R O_R

Atoms

       1      444        1     1.08135    0.57819    4.90341   17.29334
       2      444        1     1.08135   -4.50253   15.11260   17.29334
       3      444        1     1.08135   10.72659    4.90339   17.29334
       4      444        1     1.08135    5.64590   15.11258   17.29334
       5      444        1     1.08135    5.64608    0.13174    9.34168
       6      444        1     1.08135    0.56539   10.34093    9.34168
       7      444        1     1.08135   15.79449    0.13172    9.34168
       8      444        1     1.08135   10.71381   10.34093    9.34168
       9      444        1     1.08135    4.51070    1.85731    0.46346
      10      444        1     1.08135   -0.56999   12.06650    0.46346
      11      444        1     1.08135   14.65911    1.85729    0.46346
      12      444        1     1.08135    9.57842   12.06648    0.46346
      13      444        1     1.08135   -0.55739    6.62896    8.41511
      14      444        1     1.08135   -5.63804   16.83815    8.41511
      15      444        1     1.08135    9.59105    6.62896    8.41511
      16      444        1     1.08135    4.51037   16.83813    8.41511
      17      444        1     1.22617    2.57574   -1.79303   35.51431
      18      444        1     1.22617   -2.52586   11.86505   17.75680
      19      444        1     1.22617   12.72417   -1.79305   35.51431
      20      444        1     1.22617    7.62261   11.86511   17.75698
      21      444        1     1.22617   -2.52991    3.38034    8.87840
      22      444        1     1.22617   -7.61084   13.58959    8.87822
      23      444        1     1.22617    7.61856    3.38036    8.87840
      24      444        1     1.22617    2.53788   13.58953    8.87840
      25      444        2     0.09966    2.20538    0.79633   14.84480
      26      444        2     0.09966   -2.87535   11.00556   14.84480
      27      444        2     0.09966   12.35377    0.79631   14.84480
      28      444        2     0.09966    7.27309   11.00556   14.84480
      29      444        2     0.09966    1.82149   -1.01563   13.23902
      30      444        2     0.09966   -3.25925    9.19361   13.23902
      31      444        2     0.09966   11.96988   -1.01565   13.23902
      32      444        2     0.09966    6.88919    9.19361   13.23902
      33      444        2     0.09966    7.78081   -0.91521   11.47680
      34      444        2     0.09966    2.70013    9.29400   11.47680
      35      444        2     0.09966   17.92921   -0.91525   11.47680
      36      444        2     0.09966   12.84851    9.29400   11.47680
      37      444        2     0.09966   -1.58399    1.11857   11.65402
      38      444        2     0.09966   -6.66467   11.32762   11.65508
      39      444        2     0.09966    8.56446    1.11839   11.65508
      40      444        2     0.09966    3.48376   11.32760   11.65508
      41      444        2     0.09966    1.83480   -1.86542   11.13959
      42      444        2     0.09966   -3.24592    8.34375   11.13959
      43      444        2     0.09966   11.98320   -1.86546   11.13959
      44      444        2     0.09966    6.90252    8.34375   11.13959
      45      444        2     0.09966   -1.23197    2.89753   13.33793
      46      444        2     0.09966   -6.31267   13.10682   13.33775
      47      444        2     0.09966    8.91648    2.89755   13.33793
      48      444        2     0.09966    3.83578   13.10680   13.33775
      49      444        2     0.09966    3.96456    5.90491    9.16802
      50      444        2     0.09966   -1.11612   16.11408    9.16802
      51      444        2     0.09966   14.11296    5.90491    9.16802
      52      444        2     0.09966    9.03230   16.11408    9.16802
      53      444        2     0.09966    7.27850    4.23447   11.79110
      54      444        2     0.09966    2.19779   14.44371   11.79110
      55      444        2     0.09966   -3.23322    4.23441   11.79110
      56      444        2     0.09966   -8.31405   14.44374   11.79093
      57      444        2     0.09966   -3.25048    6.04719   13.39688
      58      444        2     0.09966   -8.33117   16.25650   13.39671
      59      444        2     0.09966    6.89792    6.04723   13.39688
      60      444        2     0.09966    1.81722   16.25644   13.39688
      61      444        2     0.09966    2.70791    5.95133   15.15697
      62      444        2     0.09966   -2.37279   16.16054   15.15697
      63      444        2     0.09966   12.85634    5.95131   15.15697
      64      444        2     0.09966    7.77566   16.16052   15.15697
      65      444        2     0.09966    3.48972    3.91847   14.98171
      66      444        2     0.09966   -1.59102   14.12769   14.98171
      67      444        2     0.09966   13.63815    3.91842   14.98189
      68      444        2     0.09966    8.55747   14.12767   14.98171
      69      444        2     0.09966   -3.23781    6.89970   15.49702
      70      444        2     0.09966   -8.31852   17.10891   15.49702
      71      444        2     0.09966    6.91061    6.89970   15.49702
      72      444        2     0.09966    1.82987   17.10889   15.49702
      73      444        2     0.09966    3.83797    2.13902   13.29869
      74      444        2     0.09966   -1.24277   12.34827   13.29851
      75      444        2     0.09966   13.98639    2.13898   13.29869
      76      444        2     0.09966    8.90574   12.34825   13.29851
      77      444        2     0.09966   -1.09559   -0.86981   17.46700
      78      444        2     0.09966   -6.17628    9.33937   17.46700
      79      444        2     0.09966    9.05284   -0.86982   17.46718
      80      444        2     0.09966    3.97213    9.33939   17.46700
      81      444        2     0.09966    2.88341    5.96436    2.91200
      82      444        2     0.09966   -2.19726   16.17360    2.91200
      83      444        2     0.09966   13.03186    5.96434    2.91200
      84      444        2     0.09966    7.95115   16.17358    2.91200
      85      444        2     0.09966    3.26733    7.77632    4.51777
      86      444        2     0.09966   -1.81332   17.98553    4.51777
      87      444        2     0.09966   13.41578    7.77630    4.51777
      88      444        2     0.09966    8.33506   17.98553    4.51777
      89      444        2     0.09966   -2.69201    7.67585    6.28017
      90      444        2     0.09966   -7.77269   17.88514    6.27999
      91      444        2     0.09966    7.45641    7.67593    6.27999
      92      444        2     0.09966    2.37574   17.88512    6.27999
      93      444        2     0.09966    6.67276    5.64229    6.10171
      94      444        2     0.09966    1.59209   15.85148    6.10171
      95      444        2     0.09966   16.82116    5.64225    6.10171
      96      444        2     0.09966   11.74052   15.85157    6.10136
      97      444        2     0.09966    3.25399    8.62607    6.61720
      98      444        2     0.09966   -1.82668   18.83527    6.61720
      99      444        2     0.09966   13.40240    8.62605    6.61720
     100      444        2     0.09966    8.32171   18.83525    6.61720
     101      444        2     0.09966    6.32075    3.86315    4.41887
     102      444        2     0.09966    1.24006   14.07234    4.41887
     103      444        2     0.09966   16.46915    3.86328    4.41798
     104      444        2     0.09966   11.38849   14.07236    4.41887
     105      444        2     0.09966    1.12411    0.85583    8.58878
     106      444        2     0.09966   -3.95655   11.06500    8.58878
     107      444        2     0.09966   11.27254    0.85585    8.58878
     108      444        2     0.09966    6.19186   11.06502    8.58878
     109      444        2     0.09966   18.10713    2.52643    5.96463
     110      444        2     0.09966   13.02647   12.73549    5.96569
     111      444        2     0.09966    7.95859    2.52626    5.96569
     112      444        2     0.09966    2.87787   12.73545    5.96569
     113      444        2     0.09966    8.33910    0.71349    4.35991
     114      444        2     0.09966    3.25838   10.92268    4.35991
     115      444        2     0.09966   18.48748    0.71345    4.35991
     116      444        2     0.09966   13.40679   10.92270    4.35991
     117      444        2     0.09966    2.38072    0.80937    2.60000
     118      444        2     0.09966   -2.69995   11.01860    2.59982
     119      444        2     0.09966   12.52920    0.80933    2.60000
     120      444        2     0.09966    7.44844   11.01860    2.59982
     121      444        2     0.09966    1.59890    2.84216    2.77509
     122      444        2     0.09966   -3.48180   13.05139    2.77491
     123      444        2     0.09966   11.74740    2.84212    2.77509
     124      444        2     0.09966    6.66664   13.05139    2.77491
     125      444        2     0.09966    8.32658   -0.13919    2.25978
     126      444        2     0.09966    3.24585   10.07002    2.25960
     127      444        2     0.09966   18.47493   -0.13919    2.25978
     128      444        2     0.09966   13.39425   10.07002    2.25960
     129      444        2     0.09966    1.25069    4.62162    4.45811
     130      444        2     0.09966   -3.82997   14.83104    4.45705
     131      444        2     0.09966   11.39920    4.62159    4.45811
     132      444        2     0.09966    6.31848   14.83081    4.45811
     133      444        2     0.09966    6.18450    7.63059    0.28944
     134      444        2     0.09966    1.10382   17.83973    0.28962
     135      444        2     0.09966   16.33292    7.63052    0.28980
     136      444        2     0.09966   11.25221   17.83977    0.28962
     137      444        3    -0.05741    1.36507    0.86725   14.15671
     138      444        3    -0.05741   -3.71566   11.07649   14.15671
     139      444        3    -0.05741   11.51348    0.86723   14.15671
     140      444        3    -0.05741    6.43279   11.07649   14.15671
     141      444        3     0.70052   -3.52987    6.10318    9.65776
     142      444        3     0.70052   -8.61052   16.31240    9.65758
     143      444        3     0.70052    6.61856    6.10347    9.65634
     144      444        3     0.70052    1.53787   16.31262    9.65634
     145      444        3    -0.05741    1.15441   -0.15417   13.23547
     146      444        3    -0.05741   -3.92632   10.05507   13.23547
     147      444        3    -0.05741   11.30282   -0.15419   13.23547
     148      444        3    -0.05741    6.22214   10.05507   13.23547
     149      444        3    -0.05741    8.59225   -1.51877   11.07247
     150      444        3    -0.05741    3.51156    8.69044   11.07247
     151      444        3    -0.05741   18.74067   -1.51862   11.07158
     152      444        3    -0.05741   13.65995    8.69042   11.07247
     153      444        3    -0.07509    3.19473    7.60754   10.24410
     154      444        3    -0.07509   -1.88597   17.81645   10.24534
     155      444        3    -0.07509   13.34313    7.60726   10.24552
     156      444        3    -0.07509    8.26244   17.81640   10.24552
     157      444        3    -0.05741   -0.76795    1.02478   12.37052
     158      444        3    -0.05741   -5.84864   11.23405   12.37034
     159      444        3    -0.05741    9.38049    1.02481   12.37034
     160      444        3    -0.05741    4.29980   11.23405   12.37034
     161      444        3    -0.07509    0.06960   -0.10734   12.34051
     162      444        3    -0.07509   -5.01111   10.10193   12.34033
     163      444        3    -0.07509   10.21802   -0.10713   12.33945
     164      444        3    -0.07509    5.13733   10.10193   12.34033
     165      444        3    -0.05741    0.78690   -2.06667   10.91941
     166      444        3    -0.05741   -4.29382    8.14252   10.91941
     167      444        3    -0.05741   10.93531   -2.06669   10.91941
     168      444        3    -0.05741    5.85462    8.14252   10.91941
     169      444        3    -0.07509    5.54165    7.03547   10.12033
     170      444        3    -0.07509    0.46097   17.24472   10.11980
     171      444        3    -0.07509   15.69005    7.03547   10.12033
     172      444        3    -0.07509   10.60939   17.24462   10.12033
     173      444        3    -0.07509   -0.22576   -1.23470   11.42691
     174      444        3    -0.07509   -5.30646    8.97455   11.42673
     175      444        3    -0.07509    9.92265   -1.23465   11.42673
     176      444        3    -0.07509    4.84197    8.97457   11.42673
     177      444        3    -0.05741   -0.56508    2.03817   13.29691
     178      444        3    -0.05741   -5.64577   12.24744   13.29673
     179      444        3    -0.05741    9.58336    2.03821   13.29673
     180      444        3    -0.05741    4.50267   12.24744   13.29673
     181      444        3    -0.07509    0.49397    1.96526   14.21673
     182      444        3    -0.07509   -4.58673   12.17453   14.21655
     183      444        3    -0.07509   10.64239    1.96526   14.21673
     184      444        3    -0.07509    5.56170   12.17451   14.21655
     185      444        3     0.70052    0.62203    3.03678   15.23617
     186      444        3     0.70052   -4.45872   13.24600   15.23617
     187      444        3     0.70052   10.77046    3.03676   15.23617
     188      444        3     0.70052    5.68976   13.24600   15.23617
     189      444        3    -0.05741    4.21096    6.76497    9.78561
     190      444        3    -0.05741   -0.86972   16.97410    9.78561
     191      444        3    -0.05741   14.35937    6.76495    9.78561
     192      444        3    -0.05741    9.27870   16.97412    9.78561
     193      444        3     0.70052    1.78221    7.34480    9.83675
     194      444        3     0.70052   -3.29849   17.55415    9.83569
     195      444        3     0.70052   11.93060    7.34478    9.83675
     196      444        3     0.70052    6.84992   17.55393    9.83675
     197      444        3    -0.05741    6.43796    4.16527   12.47919
     198      444        3    -0.05741    1.35726   14.37448   12.47919
     199      444        3    -0.05741   16.58638    4.16523   12.47919
     200      444        3    -0.05741   11.50571   14.37454   12.47902
     201      444        3     0.70052    1.55758   -1.06733   16.97761
     202      444        3     0.70052   -3.52311    9.14167   16.97850
     203      444        3     0.70052   11.70599   -1.06755   16.97868
     204      444        3     0.70052    6.62530    9.14162   16.97868
     205      444        3    -0.05741    6.22928    5.18701   13.40044
     206      444        3    -0.05741    1.14856   15.39623   13.40044
     207      444        3    -0.05741   16.37769    5.18699   13.40044
     208      444        3    -0.05741   11.29701   15.39625   13.40044
     209      444        3    -0.05741    3.51933    6.55439   15.56219
     210      444        3    -0.05741   -1.56140   16.76360   15.56219
     211      444        3    -0.05741   13.66773    6.55439   15.56219
     212      444        3    -0.05741    8.58702   16.76391   15.56059
     213      444        3    -0.07509    8.28302   -2.57162   16.38914
     214      444        3    -0.07509    3.20235    7.63753   16.38914
     215      444        3    -0.07509   18.43145   -2.57164   16.38914
     216      444        3    -0.07509   13.35078    7.63751   16.38914
     217      444        3    -0.05741    4.30544    4.01087   14.26610
     218      444        3    -0.05741   -0.77529   14.22014   14.26592
     219      444        3    -0.05741   14.45385    4.01085   14.26610
     220      444        3    -0.05741    9.37318   14.22012   14.26592
     221      444        3    -0.07509    5.14457    5.14181   14.29575
     222      444        3    -0.07509    0.06384   15.35105   14.29575
     223      444        3    -0.07509   15.29298    5.14179   14.29575
     224      444        3    -0.07509   10.21231   15.35103   14.29575
     225      444        3    -0.05741   -4.28576    7.10132   15.71668
     226      444        3    -0.05741   -9.36645   17.31054   15.71668
     227      444        3    -0.05741    5.86265    7.10132   15.71668
     228      444        3    -0.05741    0.78194   17.31051   15.71668
     229      444        3    -0.07509    0.48170   -2.00078   16.51575
     230      444        3    -0.07509   -4.59897    8.20838   16.51575
     231      444        3    -0.07509   10.63010   -2.00078   16.51575
     232      444        3    -0.07509    5.54941    8.20840   16.51575
     233      444        3    -0.07509    4.84987    6.26971   15.20882
     234      444        3    -0.07509   -0.23084   16.47890   15.20882
     235      444        3    -0.07509   14.99829    6.26971   15.20882
     236      444        3    -0.07509    9.91758   16.47892   15.20882
     237      444        3    -0.05741    4.50608    2.99745   13.33935
     238      444        3    -0.05741   -0.57464   13.20666   13.33935
     239      444        3    -0.05741   14.65449    2.99743   13.33935
     240      444        3    -0.05741    9.57382   13.20666   13.33935
     241      444        3    -0.07509    5.56502    3.06873   12.41935
     242      444        3    -0.07509    0.48430   13.27795   12.41935
     243      444        3    -0.07509   15.71347    3.06867   12.41935
     244      444        3    -0.07509   10.63281   13.27793   12.41935
     245      444        3     0.70052    5.68966    1.99775   11.39903
     246      444        3     0.70052    0.60896   12.20697   11.39903
     247      444        3     0.70052   15.83803    1.99773   11.39903
     248      444        3     0.70052   10.75739   12.20700   11.39885
     249      444        3    -0.05741    9.29930   -1.72993   16.84976
     250      444        3    -0.05741    4.21862    8.47927   16.84958
     251      444        3    -0.05741   19.44771   -1.72988   16.84958
     252      444        3    -0.05741   14.36703    8.47929   16.84958
     253      444        3     0.70052    6.87051   -2.30874   16.79756
     254      444        3     0.70052    1.78982    7.90041   16.79756
     255      444        3     0.70052   17.01892   -2.30855   16.79649
     256      444        3     0.70052   11.93823    7.90041   16.79756
     257      444        3    -0.05741    3.72373    5.89342    3.60009
     258      444        3    -0.05741   -1.35694   16.10266    3.60009
     259      444        3    -0.05741   13.87212    5.89340    3.60009
     260      444        3    -0.05741    8.79145   16.10264    3.60009
     261      444        3     0.70052    8.61853    0.65746    8.09904
     262      444        3     0.70052    3.53786   10.86661    8.09904
     263      444        3     0.70052   18.76692    0.65740    8.09904
     264      444        3     0.70052   13.68625   10.86659    8.09904
     265      444        3    -0.05741    3.93440    6.91486    4.52133
     266      444        3    -0.05741   -1.14626   17.12407    4.52133
     267      444        3    -0.05741   14.08282    6.91482    4.52133
     268      444        3    -0.05741    9.00213   17.12405    4.52133
     269      444        3    -0.05741   -3.50348    8.27944    6.68433
     270      444        3    -0.05741   -8.58415   18.48868    6.68433
     271      444        3    -0.05741    6.64496    8.27948    6.68433
     272      444        3    -0.05741    1.56426   18.48868    6.68433
     273      444        3    -0.07509    1.89403   -0.84649    7.51128
     274      444        3    -0.07509   -3.18667    9.36267    7.51128
     275      444        3    -0.07509   12.04244   -0.84654    7.51145
     276      444        3    -0.07509    6.96174    9.36269    7.51128
     277      444        3    -0.05741    5.85673    5.73586    5.38645
     278      444        3    -0.05741    0.77606   15.94509    5.38628
     279      444        3    -0.05741   16.00513    5.73582    5.38645
     280      444        3    -0.05741   10.92447   15.94511    5.38628
     281      444        3    -0.07509    5.01920    6.86798    5.41646
     282      444        3    -0.07509   -0.06148   17.07723    5.41629
     283      444        3    -0.07509   15.16761    6.86796    5.41646
     284      444        3    -0.07509   10.08694   17.07723    5.41629
     285      444        3    -0.05741    4.30189    8.82735    6.83739
     286      444        3    -0.05741   -0.77881   19.03671    6.83650
     287      444        3    -0.05741   14.45031    8.82730    6.83739
     288      444        3    -0.05741    9.36960   19.03652    6.83739
     289      444        3    -0.07509   -0.45293   -0.27477    7.63646
     290      444        3    -0.07509   -5.53360    9.93440    7.63646
     291      444        3    -0.07509    9.69548   -0.27477    7.63646
     292      444        3    -0.07509    4.61479    9.93442    7.63646
     293      444        3    -0.07509    5.31456    7.99534    6.33007
     294      444        3    -0.07509    0.23389   18.20457    6.32989
     295      444        3    -0.07509   15.46297    7.99528    6.33007
     296      444        3    -0.07509   10.38228   18.20455    6.32989
     297      444        3    -0.05741    5.65386    4.72247    4.46006
     298      444        3    -0.05741    0.57318   14.93172    4.45989
     299      444        3    -0.05741   15.80226    4.72243    4.46006
     300      444        3    -0.05741   10.72160   14.93172    4.45989
     301      444        3    -0.07509    4.59483    4.79540    3.54024
     302      444        3    -0.07509   -0.48589   15.00462    3.54007
     303      444        3    -0.07509   14.74327    4.79543    3.54007
     304      444        3    -0.07509    9.66256   15.00465    3.54007
     305      444        3     0.70052    4.46678    3.72393    2.52063
     306      444        3     0.70052   -0.61391   13.93318    2.52045
     307      444        3     0.70052   14.61516    3.72389    2.52063
     308      444        3     0.70052    9.53450   13.93312    2.52063
     309      444        3    -0.05741    0.87773   -0.00423    7.97119
     310      444        3    -0.05741   -4.20294   10.20492    7.97119
     311      444        3    -0.05741   11.02617   -0.00419    7.97119
     312      444        3    -0.05741    5.94547   10.20498    7.97119
     313      444        3     0.70052    3.30651   -0.58399    7.92022
     314      444        3     0.70052   -1.77418    9.62512    7.92022
     315      444        3     0.70052   13.45494   -0.58397    7.92022
     316      444        3     0.70052    8.37425    9.62518    7.92022
     317      444        3    -0.05741   -1.34934    2.59544    5.27743
     318      444        3    -0.05741   -6.43000   12.80466    5.27760
     319      444        3    -0.05741    8.79916    2.59544    5.27743
     320      444        3    -0.05741    3.71841   12.80464    5.27760
     321      444        3     0.70052    3.53133    7.82809    0.77812
     322      444        3     0.70052   -1.54934   18.03724    0.77812
     323      444        3     0.70052   13.67976    7.82806    0.77812
     324      444        3     0.70052    8.59904   18.03726    0.77812
     325      444        3    -0.05741   -1.14067    1.57364    4.35636
     326      444        3    -0.05741   -6.22133   11.78293    4.35618
     327      444        3    -0.05741    9.00783    1.57364    4.35636
     328      444        3    -0.05741    3.92706   11.78291    4.35618
     329      444        3    -0.05741    1.56937    0.20627    2.19478
     330      444        3    -0.05741   -3.51132   10.41753    2.18413
     331      444        3    -0.05741   11.71785    0.20623    2.19478
     332      444        3    -0.05741    6.63709   10.41550    2.19461
     333      444        3    -0.07509   -3.19425    9.33240    1.36766
     334      444        3    -0.07509   -8.27496   19.54159    1.36766
     335      444        3    -0.07509    6.95417    9.33240    1.36766
     336      444        3    -0.07509    1.87348   19.54155    1.36766
     337      444        3    -0.05741    0.78318    2.74976    3.49070
     338      444        3    -0.05741   -4.29750   12.95898    3.49070
     339      444        3    -0.05741   10.93170    2.74969    3.49088
     340      444        3    -0.05741    5.85093   12.95896    3.49070
     341      444        3    -0.07509   -0.05595    1.61882    3.46105
     342      444        3    -0.07509   -5.13663   11.82803    3.46105
     343      444        3    -0.07509   10.09253    1.61882    3.46105
     344      444        3    -0.07509    5.01179   11.82801    3.46105
     345      444        3    -0.05741    9.37452   -0.34075    2.04012
     346      444        3    -0.05741    4.29380    9.86848    2.03994
     347      444        3    -0.05741   19.52290   -0.34044    2.03852
     348      444        3    -0.05741   14.44220    9.86848    2.03994
     349      444        3    -0.07509    4.60714    8.76139    1.24105
     350      444        3    -0.07509   -0.47356   18.97089    1.23945
     351      444        3    -0.07509   14.75555    8.76139    1.24105
     352      444        3    -0.07509    9.67482   18.97058    1.24105
     353      444        3    -0.07509    0.23879    0.49093    2.54797
     354      444        3    -0.07509   -4.84190   10.70012    2.54797
     355      444        3    -0.07509   10.38727    0.49089    2.54797
     356      444        3    -0.07509    5.30651   10.70014    2.54797
     357      444        3    -0.05741    0.58256    3.76319    4.41745
     358      444        3    -0.05741   -4.49809   13.97246    4.41727
     359      444        3    -0.05741   10.73109    3.76317    4.41745
     360      444        3    -0.05741    5.65032   13.97244    4.41727
     361      444        3    -0.07509   -0.47638    3.69194    5.33745
     362      444        3    -0.07509   -5.55704   13.90123    5.33727
     363      444        3    -0.07509    9.67206    3.69198    5.33745
     364      444        3    -0.07509    4.59141   13.90113    5.33745
     365      444        3     0.70052   -0.60094    4.76292    6.35777
     366      444        3     0.70052   -5.68157   14.97216    6.35777
     367      444        3     0.70052    9.54758    4.76306    6.35706
     368      444        3     0.70052    4.46681   14.97216    6.35777
     369      444        3    -0.05741   -4.21044    8.49057    0.90721
     370      444        3    -0.05741   -9.29116   18.69979    0.90721
     371      444        3    -0.05741    5.93796    8.49093    0.90561
     372      444        3    -0.05741    0.85728   18.69971    0.90721
     373      444        3     0.70052   -1.78167    9.06960    0.95942
     374      444        3     0.70052   -6.86238   19.27882    0.95942
     375      444        3     0.70052    8.36672    9.06975    0.95889
     376      444        3     0.70052    3.28607   19.27871    0.95942
     377      444        4    -0.71979    1.53218    2.95979   16.17357
     378      444        4    -0.71979   -3.54855   13.16902   16.17357
     379      444        4    -0.71979   11.68060    2.95979   16.17357
     380      444        4    -0.71979    6.59992   13.16900   16.17357
     381      444        4    -0.59930   -0.14575    4.03682   15.20616
     382      444        4    -0.59930   -5.22648   14.24605   15.20616
     383      444        4    -0.59930   10.00267    4.03682   15.20616
     384      444        4    -0.59930    4.92195   14.24603   15.20616
     385      444        4    -0.59930    1.50940    6.24255    9.26178