Created on Tue Feb 06 15:03:36 2018 

        3264 atoms
        3968 bonds
        8448 angles
       11008 dihedrals
        1536 impropers

           5 atom types
           5 bond types
          10 angle types
           5 dihedral types
           1 improper types
           0.000000  48.330000 xlo xhi
           0.000000  30.747995 ylo yhi
           0.000000  34.085956 zlo zhi
          -0.928156  -0.003569   0.054649 xy xz yz

Masses

    1   112.411000000 # Cd3+2
    2     1.007940000 # H_
    3    12.010700000 # C_R
    4    12.010700000 # C_3
    5    15.999400000 # O_R

Bond Coeffs

    1      147.192711        2.045725  # Cd3+2 O_R
    2      331.069389        1.109401  # H_ C_3
    3      646.680887        1.311940  # C_R O_R
    4      369.943935        1.486000  # C_R C_3
    5      349.795899        1.514000  # C_3 C_3

Angle Coeffs

    1                      fourier       30.023701        0.343737        0.374972        0.281246 # O_R Cd3+2 O_R
    2              cosine/periodic      130.962624              -1               3 # C_3 C_R O_R
    3              cosine/periodic      217.450257              -1               3 # O_R C_R O_R
    4                      fourier       69.847816        0.343737        0.374972        0.281246 # H_ C_3 C_3
    5                      fourier       97.888497        0.343737        0.374972        0.281246 # C_3 C_3 C_R
    6                      fourier       93.452663        0.343737        0.374972        0.281246 # C_3 C_3 C_3
    7                      fourier       73.868412        0.343737        0.374972        0.281246 # H_ C_3 C_R
    8                      fourier       61.342703        0.343737        0.374972        0.281246 # H_ C_3 H_
    9              cosine/periodic       45.673393              -1               3 # Cd3+2 O_R C_R
   10              cosine/periodic       15.251616              -1               3 # Cd3+2 O_R Cd3+2

Dihedral Coeffs

    1        1.497136              -1               2 # O_R C_R O_R Cd3+2
    2        0.083333               1               3 # O_R C_R C_3 C_3
    3        2.245703              -1               2 # C_3 C_R O_R Cd3+2
    4        0.066219               1               3 # C_R C_3 C_3 H_
    5        0.416667              -1               2 # H_ C_3 C_R O_R

Improper Coeffs

    1        2.000000        1.000000       -1.000000        0.000000               0 # O_R C_R C_3 O_R

Pair Coeffs

    1        0.228000        2.537280 # Cd3+2 Cd3+2
    2        0.044000        2.571134 # H_ H_
    3        0.105000        3.430851 # C_R C_R
    4        0.105000        3.430851 # C_3 C_3
    5        0.060000        3.118146 # O_R O_R

Atoms

       1      444        1     1.18405    3.64124    4.60118   14.58572
       2      444        1     1.18405   15.72354    4.60153   14.58589
       3      444        1     1.10350    6.81817    3.50983   13.71994
       4      444        1     1.10350   18.90014    3.50968   13.72011
       5      444        1     1.18405    9.16116    0.01936   12.07665
       6      444        1     1.18405   21.24349    0.01936   12.07665
       7      444        1     1.18405    2.16287    3.12110    6.05912
       8      444        1     1.18405   14.24553    3.12115    6.05878
       9      444        1     1.10350   11.07193    4.21267    5.20118
      10      444        1     1.10350   23.15403    4.21237    5.20135
      11      444        1     1.18405    8.72751    7.57677    3.56982
      12      444        1     1.18405   20.81313    7.57480    3.56812
      13      444        1     1.18405    7.97564   10.79996    2.45726
      14      444        1     1.18405   20.05786   10.80042    2.45726
      15      444        1     1.10350    4.79914   11.89164    3.32287
      16      444        1     1.10350   16.88104   11.89150    3.32304
      17      444        1     1.18405    2.45933   15.25820    4.96632
      18      444        1     1.18405   14.54168   15.25777    4.96598
      19      444        1     1.18405    9.45365   12.28034   10.98403
      20      444        1     1.18405   21.53631   12.28037   10.98386
      21      444        1     1.10350    0.54513   11.18899   11.84163
      22      444        1     1.10350   12.62720   11.18867   11.84163
      23      444        1     1.18405    2.88657    7.82623   13.47452
      24      444        1     1.18405   14.97186    7.82424   13.47247
      25      444        2     0.08890    7.95049    6.18716   13.98342
      26      444        2     0.08890   20.03402    6.18665   13.98325
      27      444        2     0.08890    6.96263    6.69128   16.19390
      28      444        2     0.08890   19.04586    6.69133   16.19339
      29      444        2     0.08890    6.66785    8.37644   15.70340
      30      444        2     0.08890   18.75083    8.37629   15.70357
      31      444        2     0.08890   11.09144    2.47089   11.80243
      32      444        2     0.08890   23.17338    2.47111   11.80226
      33      444        2     0.08890   10.90193    5.50136   12.21726
      34      444        2     0.08890   22.98052    5.50123   12.21760
      35      444        2     0.08890   11.60421    4.34247   13.36152
      36      444        2     0.08890   23.68380    4.34281   13.36169
      37      444        2     0.08890    1.28565    3.74051   11.75965
      38      444        2     0.08890   13.36903    3.73638   11.75795
      39      444        2     0.08890    0.08090    5.89604    9.92600
      40      444        2     0.08890   12.16693    5.89424    9.92549
      41      444        2     0.08890    1.52993    4.95351    9.58480
      42      444        2     0.08890   13.61452    4.94999    9.58361
      43      444        2     0.08890    7.29858    9.08858   13.23847
      44      444        2     0.08890   19.38169    9.08776   13.23728
      45      444        2     0.08890    7.98369    7.86952   12.16272
      46      444        2     0.08890   20.06762    7.86862   12.16221
      47      444        2     0.08890   10.03874    7.73304   13.56706
      48      444        2     0.08890   22.12245    7.73375   13.56706
      49      444        2     0.08890    8.75254    9.92600   15.28806
      50      444        2     0.08890   20.83463    9.92626   15.28738
      51      444        2     0.08890   10.37630    9.24406   15.48355
      52      444        2     0.08890   22.45869    9.24519   15.48320
      53      444        2     0.08890    9.39584    7.01313   16.01887
      54      444        2     0.08890   21.47910    7.01369   16.01818
      55      444        2     0.08890    9.83420    2.85870    9.69268
      56      444        2     0.08890   21.91689    2.85811    9.69200
      57      444        2     0.08890    9.82919    4.60263    9.98821
      58      444        2     0.08890   21.91033    4.60206    9.98770
      59      444        2     0.08890    0.23797    2.85869    9.54236
      60      444        2     0.08890   12.31997    2.85687    9.54066
      61      444        2     0.08890    9.93488    1.52390    5.44455
      62      444        2     0.08890   22.01751    1.52367    5.44421
      63      444        2     0.08890   10.91860    1.03988    7.66065
      64      444        2     0.08890   23.00074    1.03985    7.66048
      65      444        2     0.08890   10.75926   14.72663    7.18413
      66      444        2     0.08890   22.84176   14.72663    7.18413
      67      444        2     0.08890    6.79998    5.24146    3.27225
      68      444        2     0.08890   18.88275    5.24066    3.27413
      69      444        2     0.08890    7.00057    2.21397    3.70480
      70      444        2     0.08890   19.08259    2.21300    3.70412
      71      444        2     0.08890    6.29375    3.37644    4.84276
      72      444        2     0.08890   18.37621    3.37536    4.84242
      73      444        2     0.08890    4.52500    3.96447    3.23748
      74      444        2     0.08890   16.60743    3.96430    3.23646
      75      444        2     0.08890    5.73823    1.80238    1.41559
      76      444        2     0.08890   17.82018    1.80220    1.41525
      77      444        2     0.08890    4.28500    2.73690    1.06894
      78      444        2     0.08890   16.36704    2.73689    1.06877
      79      444        2     0.08890   10.13446   13.99348    4.72073
      80      444        2     0.08890   22.21709   13.99320    4.72090
      81      444        2     0.08890    9.44418   15.20146    3.63629
      82      444        2     0.08890   21.52736   15.20114    3.63612
      83      444        2     0.08890    7.38742   15.33812    5.04012
      84      444        2     0.08890   19.47030   15.33851    5.03961
      85      444        2     0.08890    8.68471   13.16346    6.77510
      86      444        2     0.08890   20.76726   13.16325    6.77424
      87      444        2     0.08890    7.05674   13.83626    6.96478
      88      444        2     0.08890   19.13925   13.83594    6.96410
      89      444        2     0.08890    8.48787    0.70363    7.48408
      90      444        2     0.08890   20.57014    0.70331    7.48357
      91      444        2     0.08890    8.05606    4.84668    1.16523
      92      444        2     0.08890   20.13808    4.84651    1.16523
      93      444        2     0.08890    8.06736    3.10415    1.46962
      94      444        2     0.08890   20.14958    3.10392    1.46893
      95      444        2     0.08890    5.56856    4.83740    1.01900
      96      444        2     0.08890   17.65072    4.83726    1.01747
      97      444        2     0.08890    3.66528    9.21479    3.05973
      98      444        2     0.08890   15.74890    9.21430    3.05956
      99      444        2     0.08890    4.65330    8.71013    0.84942
     100      444        2     0.08890   16.73655    8.71019    0.84891
     101      444        2     0.08890    4.94823    7.02513    1.33924
     102      444        2     0.08890   17.03126    7.02499    1.33821
     103      444        2     0.08890    0.52589   12.93045    5.24055
     104      444        2     0.08890   12.60762   12.93043    5.24037
     105      444        2     0.08890    0.71929    9.90038    4.82521
     106      444        2     0.08890   12.79764    9.90001    4.82555
     107      444        2     0.08890    0.01583   11.05878    3.68111
     108      444        2     0.08890   12.09514   11.05879    3.68128
     109      444        2     0.08890   10.33006   11.66431    5.28366
     110      444        2     0.08890   22.41348   11.66027    5.28179
     111      444        2     0.08890   11.53257    9.50690    7.11749
     112      444        2     0.08890   23.61858    9.50527    7.11681
     113      444        2     0.08890   10.08475   10.45089    7.45920
     114      444        2     0.08890   22.16938   10.44764    7.45767
     115      444        2     0.08890    4.31740    6.31360    3.80399
     116      444        2     0.08890   16.40051    6.31281    3.80433
     117      444        2     0.08890    3.63159    7.53278    4.88077
     118      444        2     0.08890   15.71552    7.53195    4.87940
     119      444        2     0.08890    1.57671    7.66779    3.47592
     120      444        2     0.08890   13.66042    7.66854    3.47592
     121      444        2     0.08890    2.86426    5.47528    1.75543
     122      444        2     0.08890   14.94632    5.47559    1.75475
     123      444        2     0.08890    1.24027    6.15654    1.55977
     124      444        2     0.08890   13.32263    6.15776    1.55943
     125      444        2     0.08890    2.22006    8.38791    1.02462
     126      444        2     0.08890   14.30334    8.38850    1.02377
     127      444        2     0.08890    1.78212   12.54358    7.35098
     128      444        2     0.08890   13.86464   12.54296    7.35013
     129      444        2     0.08890    1.78896   10.79963    7.05528
     130      444        2     0.08890   13.87005   10.79901    7.05477
     131      444        2     0.08890   11.37888   12.54423    7.50079
     132      444        2     0.08890   23.46100   12.54260    7.49976
     133      444        2     0.08890    1.68170   13.87784   11.59877
     134      444        2     0.08890   13.76430   13.87762   11.59775
     135      444        2     0.08890    0.69832   14.36163    9.38250
     136      444        2     0.08890   12.78044   14.36166    9.38233
     137      444        2     0.08890    0.85728    0.67483    9.85885
     138      444        2     0.08890   12.93978    0.67486    9.85902
     139      444        2     0.08890    4.81639   10.16067   13.76885
     140      444        2     0.08890   16.89916   10.15987   13.76919
     141      444        2     0.08890    4.61635   13.18831   13.33903
     142      444        2     0.08890   16.69830   13.18737   13.33835
     143      444        2     0.08890    5.32271   12.02602   12.20056
     144      444        2     0.08890   17.40514   12.02498   12.20022
     145      444        2     0.08890    7.09149   11.43707   13.80566
     146      444        2     0.08890   19.17390   11.43688   13.80549
     147      444        2     0.08890    5.87869   13.59923   15.62773
     148      444        2     0.08890   17.96062   13.59906   15.62722
     149      444        2     0.08890    7.33189   12.66468   15.97421
     150      444        2     0.08890   19.41391   12.66467   15.97387
     151      444        2     0.08890    1.48187    1.40827   12.32207
     152      444        2     0.08890   13.56448    1.40801   12.32224
     153      444        2     0.08890    2.17705    0.02149   13.40686
     154      444        2     0.08890   14.26017    0.02149   13.40669
     155      444        2     0.08890    4.23004    0.01924   11.99826
     156      444        2     0.08890   16.31287    0.01924   12.00167
     157      444        2     0.08890    2.93170    2.23825   10.26874
     158      444        2     0.08890   15.01421    2.23810   10.26805
     159      444        2     0.08890    4.55976    1.56563   10.07888
     160      444        2     0.08890   16.64222    1.56538   10.07751
     161      444        2     0.08890    3.12892   14.69822    9.55941
     162      444        2     0.08890   15.21121   14.69794    9.55907
     163      444        2     0.08890    3.56094   10.55483   15.87775
     164      444        2     0.08890   15.64299   10.55463   15.87775
     165      444        2     0.08890    3.54939   12.29743   15.57404
     166      444        2     0.08890   15.63156   12.29715   15.57336
     167      444        2     0.08890    6.04834   10.56420   16.02398
     168      444        2     0.08890   18.13050   10.56407   16.02398
     169      444        3     0.72210    5.91464    6.78577   13.70170
     170      444        3     0.72210   17.99818    6.78559   13.70153
     171      444        4    -0.17412    7.35160    7.10147   14.08909
     172      444        4    -0.17412   19.43516    7.10101   14.08875
     173      444        4    -0.10786    7.34473    7.51701   15.57558
     174      444        4    -0.10786   19.42791    7.51695   15.57592
     175      444        3     0.72210    9.23553    3.38086   12.33571
     176      444        3     0.72210   21.31689    3.38018   12.33622
     177      444        4    -0.17412   10.59065    3.44055   11.65484
     178      444        4    -0.17412   22.67197    3.44040   11.65467
     179      444        4    -0.10786   11.44656    4.54711   12.29378
     180      444        4    -0.10786   23.52631    4.54768   12.29395
     181      444        4    -0.17412    0.72537    4.67654   11.58650
     182      444        4    -0.17412   12.81070    4.67379   11.58565
     183      444        4    -0.10786    0.55417    4.91426   10.08450
     184      444        4    -0.10786   12.63906    4.91185   10.08382
     185      444        4    -0.10786    7.95116    8.20540   13.20933
     186      444        4    -0.10786   20.03467    8.20485   13.20865
     187      444        4    -0.17412    9.35539    8.59134   13.67938
     188      444        4    -0.17412   21.43855    8.59164   13.67904
     189      444        3     0.72210    9.95973    9.73591   12.86319
     190      444        3     0.72210   22.04243    9.73654   12.86302
     191      444        4    -0.10786    9.35068    9.00965   15.16450
     192      444        4    -0.10786   21.43326    9.01020   15.16399
     193      444        4    -0.17412    8.75705    7.90938   16.05108
     194      444        4    -0.17412   20.84002    7.90974   16.05176
     195      444        3     0.72210    8.66591    8.31022    0.47601
     196      444        3     0.72210   20.74873    8.31009    0.47550
     197      444        4    -0.10786   10.41013    3.67968   10.13887
     198      444        4    -0.10786   22.49189    3.67953   10.14006
     199      444        3     0.72210    1.52754    5.76821   12.27129
     200      444        3     0.72210   13.61755    5.76292   12.26941
     201      444        4    -0.17412   11.77039    3.81347    9.44505
     202      444        4    -0.17412   23.85238    3.81458    9.44556
     203      444        3     0.72210   11.64282    4.02548    7.94066
     204      444        3     0.72210   23.72545    4.02596    7.94083
     205      444        3     0.72210   24.05682    0.93071    5.17561
     206      444        3     0.72210   11.97425    0.93080    5.17544
     207      444        4    -0.17412   10.53626    0.61219    5.55823
     208      444        4    -0.17412   22.61891    0.61200    5.55806
     209      444        4    -0.10786   10.54220    0.20760    7.04863
     210      444        4    -0.10786   22.62459    0.20747    7.04846
     211      444        3     0.72210    8.65731    4.33714    3.81251
     212      444        3     0.72210   20.73972    4.33549    3.81371
     213      444        4    -0.17412    7.30314    4.27243    3.13080
     214      444        4    -0.17412   19.38557    4.27148    3.11886
     215      444        4    -0.10786    6.45165    3.16613    3.77604
     216      444        4    -0.10786   18.53391    3.16529    3.77570
     217      444        4    -0.17412    5.08799    3.02902    3.06927
     218      444        4    -0.17412   17.17011    3.02871    3.06910
     219      444        4    -0.10786    5.26058    2.78295    1.56847
     220      444        4    -0.10786   17.34262    2.78276    1.56829
     221      444        4    -0.10786    9.47759   14.87328    4.68529
     222      444        4    -0.10786   21.56038   14.87311    4.68511
     223      444        4    -0.17412    8.07464   14.48343    5.15755
     224      444        4    -0.17412   20.15723   14.48356    5.15703
     225      444        3     0.72210    7.47253   13.33080    4.35073
     226      444        3     0.72210   19.55504   13.33129    4.34988
     227      444        4    -0.10786    8.08086   14.07515    6.64472
     228      444        4    -0.10786   20.16336   14.07497    6.64420
     229      444        4    -0.17412    8.66712   15.18492    7.51595
     230      444        4    -0.17412   20.74946   15.18465    7.52396
     231      444        3     0.72210    8.76077   14.76714    8.99307
     232      444        3     0.72210   20.84301   14.76683    8.99273
     233      444        4    -0.10786    7.48340    4.02589    1.61738
     234      444        4    -0.10786   19.56552    4.02554    1.61704
     235      444        3     0.72210    4.28940    1.94002    3.76275
     236      444        3     0.72210   16.37155    1.93980    3.76258
     237      444        4    -0.17412    6.12293    3.88335    0.92390
     238      444        4    -0.17412   18.20500    3.88317    0.92373
     239      444        3     0.72210    6.24731    3.69551   16.46232
     240      444        3     0.72210   18.32950    3.69547   16.46215
     241      444        3     0.72210    5.70108    8.61569    3.34145
     242      444        3     0.72210   17.78469    8.61550    3.34111
     243      444        4    -0.17412    4.26407    8.30038    2.95423
     244      444        4    -0.17412   16.34770    8.29990    2.95372
     245      444        4    -0.10786    4.27123    7.88451    1.46689
     246      444        4    -0.10786   16.35445    7.88446    1.46570
     247      444        3     0.72210    2.38241   12.02136    4.70676
     248      444        3     0.72210   14.46368   12.02056    4.70642
     249      444        4    -0.17412    1.02738   11.96118    5.38831
     250      444        4    -0.17412   13.10848   11.96083    5.38797
     251      444        4    -0.10786    0.17331   10.85383    4.74886
     252      444        4    -0.10786   12.25280   10.85414    4.74817
     253      444        4    -0.17412   10.88866   10.72709    5.45716
     254      444        4    -0.17412   22.97421   10.72456    5.45614
     255      444        4    -0.10786   11.06025   10.48918    6.95899
     256      444        4    -0.10786   23.14523   10.48697    6.95814
     257      444        4    -0.10786    3.66449    7.19657    3.83416
     258      444        4    -0.10786   15.74802    7.19606    3.83348
     259      444        4    -0.17412    2.26055    6.80988    3.36377
     260      444        4    -0.17412   14.34374    6.81023    3.36343
     261      444        3     0.72210    1.65672    5.66495    4.17894
     262      444        3     0.72210   13.73942    5.66561    4.17962
     263      444        4    -0.10786    2.26573    6.39142    1.87882
     264      444        4    -0.10786   14.34831    6.39201    1.87831
     265      444        4    -0.17412    2.85909    7.49182    0.99105
     266      444        4    -0.17412   14.94208    7.49220    0.99054
     267      444        3     0.72210    2.95041    7.09136   16.56731
     268      444        3     0.72210   15.03325    7.09124   16.56680
     269      444        4    -0.10786    1.20729   11.72207    6.90292
     270      444        4    -0.10786   13.28893   11.72182    6.90258
     271      444        3     0.72210   10.08231    9.63763    4.77340
     272      444        3     0.72210   22.17310    9.63223    4.77135
     273      444        4    -0.17412   -0.15326   11.58679    7.59725
     274      444        4    -0.17412   11.92867   11.58777    7.59776
     275      444        3     0.72210   -0.02638   11.37535    9.10197
     276      444        3     0.72210   12.05623   11.37573    9.10231
     277      444        3     0.72210   11.72489   14.47052   11.86754
     278      444        3     0.72210   -0.43748   14.47061   11.86737
     279      444        4    -0.17412    1.08017   14.78946   11.48492
     280      444        4    -0.17412   13.16282   14.78929   11.48475
     281      444        4    -0.10786    1.07447   15.19399    9.99451
     282      444        4    -0.10786   13.15683   15.19391    9.99434
     283      444        3     0.72210    2.95926   11.06560   13.22944
     284      444        3     0.72210   15.04176   11.06397   13.22910
     285      444        4    -0.17412    4.31345   11.12977   13.91235
     286      444        4    -0.17412   16.39590   11.12887   13.91218
     287      444        4    -0.10786    5.16504   12.23603   13.26728
     288      444        4    -0.10786   17.24727   12.23523   13.26694
     289      444        4    -0.17412    6.52880   12.37269   13.97388
     290      444        4    -0.17412   18.61095   12.37238   13.97371
     291      444        4    -0.10786    6.35632   12.61867   15.47468
     292      444        4    -0.10786   18.43834   12.61854   15.47451
     293      444        4    -0.10786    2.13865    0.52842   12.35786
     294      444        4    -0.10786   14.22140    0.52825   12.35769
     295      444        4    -0.17412    3.54178    0.91799   11.88594
     296      444        4    -0.17412   15.62437    0.91813   11.88543
     297      444        3     0.72210    4.14404    2.07026   12.69310
     298      444        3     0.72210   16.22655    2.07067   12.69191
     299      444        4    -0.10786    3.53562    1.32657   10.39877
     300      444        4    -0.10786   15.61810    1.32641   10.39826
     301      444        4    -0.17412    2.94958    0.21683    9.51901
     302      444        4    -0.17412   15.03192    0.21661    9.51867
     303      444        3     0.72210    2.85605    0.63457    8.05025
     304      444        3     0.72210   14.93832    0.63432    8.04991
     305      444        4    -0.10786    4.13344   11.37582   15.42594
     306      444        4    -0.10786   16.21559   11.37543   15.42560
     307      444        3     0.72210    7.32737   13.46152   13.28023
     308      444        3     0.72210   19.40961   13.46127   13.28006
     309      444        4    -0.17412    5.49399   11.51823   16.11925
     310      444        4    -0.17412   17.57609   11.51807   16.11754
     311      444        3     0.72210    5.36959   11.70594    0.58082
     312      444        3     0.72210   17.45173   11.70585    0.58065
     313      444        5    -0.62872    5.53955    5.55239   13.63200
     314      444        5    -0.62872   17.62231    5.55247   13.63200
     315      444        5    -0.71266    8.59845    4.45213   12.55556
     316      444        5    -0.71266   20.67990    4.45148   12.55556
     317      444        5    -0.71266    8.72220    2.25165   12.71543
     318      444        5    -0.71266   20.80400    2.25100   12.71543
     319      444        5    -0.71266    5.13514    7.76693   13.52360
     320      444        5    -0.71266   17.21918    7.76718   13.52377
     321      444        5    -0.71266    9.14064   10.51490   12.27180
     322      444        5    -0.71266   21.22300   10.51498   12.27146
     323      444        5    -0.71266   11.22927    9.82926   12.89693
     324      444        5    -0.71266   23.31182    9.83078   12.89727
     325      444        5    -0.71266    8.27139    9.50747    0.68632
     326      444        5    -0.71266   20.35424    9.50720    0.68649
     327      444        5    -0.71266    8.94167    7.42346    1.34452
     328      444        5    -0.71266   21.02454    7.42263    1.34333
     329      444        5    -0.62872    1.84827    5.60529   13.51764
     330      444        5    -0.62872   13.92860    5.60454   13.51883
     331      444        5    -0.71266    1.83012    6.83628   11.66370
     332      444        5    -0.71266   13.93398    6.82441   11.65740
     333      444        5    -0.71266    0.60561    4.34509    7.26900
     334      444        5    -0.71266   12.68797    4.34494    7.26849
     335      444        5    -0.71266   10.50578    3.88479    7.38421
     336      444        5    -0.71266   22.58852    3.88487    7.38421
     337      444        5    -0.62872    0.26513    2.16498    5.10778
     338      444        5    -0.62872   12.34765    2.16504    5.10846
     339      444        5    -0.71266    9.29722    3.26730    4.03203
     340      444        5    -0.71266   21.37951    3.26560    4.03186
     341      444        5    -0.71266    9.16736    5.46685    4.19530
     342      444        5    -0.71266   21.24989    5.46511    4.19530
     343      444        5    -0.71266    0.20961   15.32487    5.00024
     344      444        5    -0.71266   12.29199   15.32492    5.00024
     345      444        5    -0.71266    8.29159   12.56787    3.73923
     346      444        5    -0.71266   20.37423   12.56899    3.73787
     347      444        5    -0.71266    6.20592   13.21397    4.41243
     348      444        5    -0.71266   18.28847   13.21385    4.41260
     349      444        5    -0.71266    9.15592   13.57210    9.21173
     350      444        5    -0.71266   21.23836   13.57188    9.21003
     351      444        5    -0.71266    8.94934    0.28737    9.85442
     352      444        5    -0.71266   21.03175    0.28717    9.85408
     353      444        5    -0.62872    3.95849    2.11535    5.00382
     354      444        5    -0.62872   16.04080    2.11524    4.99359
     355      444        5    -0.71266    4.00055    0.86083    3.16812
     356      444        5    -0.71266   16.08284    0.86050    3.16795
     357      444        5    -0.71266    5.20192    3.37450   15.79134
     358      444        5    -0.71266   17.28416    3.37436   15.79117
     359      444        5    -0.71266    7.38362    3.83744   15.90468
     360      444        5    -0.71266   19.46586    3.83741   15.90468
     361      444        5    -0.62872    6.07697    9.84881    3.41081
     362      444        5    -0.62872   18.15974    9.84890    3.41098
     363      444        5    -0.71266    3.01937   10.95001    4.48742
     364      444        5    -0.71266   15.10071   10.94925    4.48708
     365      444        5    -0.71266    2.89538   13.15048    4.32721
     366      444        5    -0.71266   14.97700   13.14975    4.32755
     367      444        5    -0.71266    6.48008    7.63408    3.51920
     368      444        5    -0.71266   18.56424    7.63437    3.51937
     369      444        5    -0.71266    2.47620    4.88665    4.77169
     370      444        5    -0.71266   14.55855    4.88679    4.77118
     371      444        5    -0.71266    0.38734    5.57056    4.14553
     372      444        5    -0.71266   12.46991    5.57213    4.14605
     373      444        5    -0.71266    3.34490    5.89422   16.35649
     374      444        5    -0.71266   15.42774    5.89393   16.35666
     375      444        5    -0.71266    2.67463    7.97868   15.69829
     376      444        5    -0.71266   14.75746    7.97785   15.69812
     377      444        5    -0.62872    9.77031    9.79652    3.52415
     378      444        5    -0.62872   21.85034    9.79588    3.52551
     379      444        5    -0.71266    9.76704    8.57555    5.38490