Created on Tue Feb 06 14:50:31 2018 

        1152 atoms
        1344 bonds
        2368 angles
        2688 dihedrals
        1920 impropers

           5 atom types
           9 bond types
          16 angle types
           3 dihedral types
           1 improper types
           0.000000  25.508000 xlo xhi
           0.000000  25.473961 ylo yhi
           0.000000  25.660997 zlo zhi
           0.044460  -0.011645  -0.001771 xy xz yz

Masses

    1    65.380000000 # Zn4+2
    2     1.007940000 # H_
    3    12.010700000 # C_R
    4    14.006700000 # N_R
    5    15.999400000 # O_R

Bond Coeffs

    1      132.439384        2.028187  # Zn4+2 N_R
    2      127.647979        1.985391  # Zn4+2 O_R
    3      357.440381        1.081418  # H_ C_R
    4      529.459447        1.043423  # H_ N_R
    5      663.718927        1.345073  # C_R N_R
    6      462.655054        1.379256  # C_R C_R
    7      391.669513        1.458000  # C_R C_R
    8      646.680887        1.311940  # C_R O_R
    9      929.109299        1.322497  # N_R N_R

Angle Coeffs

    1       66.418124               1               4 # N_R Zn4+2 N_R
    2       63.300260               1               4 # O_R Zn4+2 N_R
    3      234.844275              -1               3 # N_R C_R N_R
    4      109.704024              -1               3 # H_ C_R N_R
    5      117.010657              -1               3 # C_R C_R C_R
    6      101.626578              -1               3 # C_R C_R C_R
    7       76.817955              -1               3 # H_ C_R C_R
    8      217.450257              -1               3 # O_R C_R O_R
    9      137.761490              -1               3 # O_R C_R C_R
   10       39.789296              -1               3 # Zn4+2 N_R N_R
   11       28.941661              -1               3 # Zn4+2 N_R C_R
   12      184.094783              -1               3 # N_R N_R C_R
   13      132.654363              -1               3 # C_R N_R C_R
   14       65.483679              -1               3 # H_ N_R H_
   15       89.115099              -1               3 # C_R N_R H_
   16       39.831479              -1               3 # Zn4+2 O_R C_R

Dihedral Coeffs

    1        1.497136              -1               2 # N_R C_R N_R N_R
    2        0.555556              -1               2 # C_R C_R C_R O_R
    3        2.245703              -1               2 # C_R C_R O_R Zn4+2

Improper Coeffs

    1        2.000000        1.000000       -1.000000        0.000000               0 # N_R C_R N_R N_R

Pair Coeffs

    1        0.124000        2.461553 # Zn4+2 Zn4+2
    2        0.044000        2.571134 # H_ H_
    3        0.105000        3.430851 # C_R C_R
    4        0.069000        3.260689 # N_R N_R
    5        0.060000        3.118146 # O_R O_R

Atoms

       1      444        1     0.82513    0.51434   11.88115   11.24054
       2      444        1     0.82513    5.90151    7.23779   11.24722
       3      444        1     0.82513    7.24944    0.46781   11.23926
       4      444        1     0.82513   11.89963    5.88840   11.24388
       5      444        1     0.82513    5.91538   11.88357    1.58636
       6      444        1     0.82513    0.50359    7.23825    1.59073
       7      444        1     0.82513   11.89514    0.49686    1.58790
       8      444        1     0.82513    7.26148    5.88737    1.58328
       9      444        1     0.82513   12.24981    0.85436   14.41968
      10      444        1     0.82513    6.86301    5.49781   14.41327
      11      444        1     0.82513    5.51489   12.26782   14.42122
      12      444        1     0.82513    0.86476    6.84699   14.41609
      13      444        1     0.82513    6.84885    0.85153   24.07438
      14      444        1     0.82513   12.26092    5.49664   24.06976
      15      444        1     0.82513    0.86937   12.23775   24.07207
      16      444        1     0.82513    5.50309    6.84773   24.07515
      17      444        2     0.09728    3.58072   12.05544   11.94981
      18      444        2     0.09728    0.75676   11.84380    5.95207
      19      444        2     0.09728    2.38025   11.89895    4.05521
      20      444        2     0.35917    3.35996    0.27471   16.66348
      21      444        2     0.35917    1.59527    0.58563   16.65270
      22      444        2     0.09728    2.82395    7.09539   11.95033
      23      444        2     0.09728    5.63946    7.27713    5.98286
      24      444        2     0.09728    4.01556    7.23032    4.08574
      25      444        2     0.35917    2.99678    6.09473   16.65655
      26      444        2     0.35917    4.75950    5.76947   16.64732
      27      444        2     0.09728    7.13658    3.54780   11.94827
      28      444        2     0.09728    7.29413    0.72483    5.95284
      29      444        2     0.09728    7.24306    2.34853    4.05444
      30      444        2     0.35917    6.11363    3.37765   16.64860
      31      444        2     0.35917    5.77206    1.61801   16.63859
      32      444        2     0.09728   12.00976    2.81246   11.95084
      33      444        2     0.09728   11.83945    5.64863    5.98902
      34      444        2     0.09728   11.88208    4.04361    4.07625
      35      444        2     0.35917    0.25500    2.98217   16.66015
      36      444        2     0.35917    0.58680    4.74288   16.64783
      37      444        2     0.09728    2.83772   12.01043    0.87966
      38      444        2     0.09728    5.65033   11.82669    6.84738
      39      444        2     0.09728    4.02662   11.86286    8.74424
      40      444        2     0.35917    2.98129    0.24944   21.82981
      41      444        2     0.35917    4.74261    0.58205   21.84110
      42      444        2     0.09728    3.57019    7.09733    0.87504
      43      444        2     0.09728    0.74582    7.28335    6.87792
      44      444        2     0.09728    2.36907    7.23619    8.77503
      45      444        2     0.35917    3.36938    6.10039   21.83315
      46      444        2     0.35917    1.60863    5.76352   21.84546
      47      444        2     0.09728   12.03153    3.55484    0.86683
      48      444        2     0.09728   11.82871    0.74686    6.83712
      49      444        2     0.09728   11.87410    2.35145    8.74963
      50      444        2     0.35917    0.25234    3.36338   21.81801
      51      444        2     0.35917    0.57391    1.60030   21.83366
      52      444        2     0.09728    7.13823    2.81331    0.87196
      53      444        2     0.09728    7.32859    5.61775    6.84815
      54      444        2     0.09728    7.29000    3.99453    8.74552
      55      444        2     0.35917    6.10357    2.98501   21.83238
      56      444        2     0.35917    5.77140    4.74628   21.84392
      57      444        2     0.09728    9.18327    0.67897   13.71067
      58      444        2     0.09728   12.00705    0.89271   19.70816
      59      444        2     0.09728   10.38371    0.83751   21.60502
      60      444        2     0.35917    9.40414   12.46118    8.99700
      61      444        2     0.35917   11.16889   12.15046    9.00752
      62      444        2     0.09728    9.94070    5.63932   13.70964
      63      444        2     0.09728    7.12476    5.45939   19.67814
      64      444        2     0.09728    8.74866    5.50613   21.57525
      65      444        2     0.35917    9.76725    6.64041    9.00367
      66      444        2     0.35917    8.00458    6.96593    9.01317
      67      444        2     0.09728    5.62794    9.18792   13.71247
      68      444        2     0.09728    5.46928   12.01020   19.70765
      69      444        2     0.09728    5.51961   10.38650   21.60399
      70      444        2     0.35917    6.65065    9.35787    9.01189
      71      444        2     0.35917    6.99214   11.11753    9.02164
      72      444        2     0.09728    0.75564    9.92263   13.70836
      73      444        2     0.09728    0.92515    7.08672   19.67069
      74      444        2     0.09728    0.88237    8.69164   21.58346
      75      444        2     0.35917   12.50860    9.75344    8.99957
      76      444        2     0.35917   12.17683    7.99272    9.01189
      77      444        2     0.09728    9.92674    0.72243   24.77980
      78      444        2     0.09728    7.11342    0.90806   18.81310
      79      444        2     0.09728    8.73702    0.87200   16.91599
      80      444        2     0.35917    9.78382   12.48162    3.82939
      81      444        2     0.35917    8.02253   12.14936    3.81810
      82      444        2     0.09728    9.19505    5.63280   24.78647
      83      444        2     0.09728   12.01842    5.44975   18.78128
      84      444        2     0.09728   10.39527    5.49693   16.88596
      85      444        2     0.35917    9.39567    6.63245    3.82862
      86      444        2     0.35917   11.15629    6.97019    3.81605
      87      444        2     0.09728    0.73285    9.17977   24.79289
      88      444        2     0.09728    0.93432   11.98857   18.82285
      89      444        2     0.09728    0.88904   10.38401   16.91008
      90      444        2     0.35917   12.51056    9.37069    3.84145
      91      444        2     0.35917   12.18926   11.13379    3.82580
      92      444        2     0.09728    5.62485    9.92162   24.78904
      93      444        2     0.09728    5.43527    7.11735   18.81208
      94      444        2     0.09728    5.47430    8.74064   16.91316
      95      444        2     0.35917    6.66050    9.74951    3.82836
      96      444        2     0.35917    6.99338    7.98837    3.81656
      97      444        3     0.64160    2.41199    0.04008   14.85720
      98      444        3     0.22944    2.99770   12.30066   12.83153
      99      444        3    -0.12084    2.29035   11.85355    7.46530
     100      444        3    -0.05395    1.82888   11.85065    6.14016
     101      444        3    -0.05395    2.73399   11.87780    5.08447
     102      444        3     0.67830    1.30957   11.83759    8.59438
     103      444        3     0.64160    3.95055    6.32739   14.85361
     104      444        3     0.22944    3.40051    6.83531   12.83229
     105      444        3    -0.12084    4.10517    7.25563    7.49558
     106      444        3    -0.05395    4.56719    7.26735    6.17121
     107      444        3    -0.05395    3.66177    7.24541    5.11501
     108      444        3     0.67830    5.08007    7.26803    8.62979
     109      444        3     0.64160    6.34572    2.42378   14.84643
     110      444        3     0.22944    6.86829    2.97144   12.82768
     111      444        3    -0.12084    7.29184    2.25780    7.46684
     112      444        3    -0.05395    7.29172    1.79697    6.14145
     113      444        3    -0.05395    7.26688    2.70236    5.08550
     114      444        3     0.67830    7.30256    1.27642    8.59618
     115      444        3     0.64160    0.02449    3.93619   14.85515
     116      444        3     0.22944   12.27167    3.38790   12.83281
     117      444        3    -0.12084   11.85876    4.10005    7.48762
     118      444        3    -0.05395   11.84768    4.57470    6.16711
     119      444        3    -0.05395   11.86746    3.67979    5.10218
     120      444        3     0.67830   11.85369    5.06744    8.62800
     121      444        3     0.64160    3.93248    0.02945   23.63557
     122      444        3     0.22944    3.40314   12.26607   25.65843
     123      444        3    -0.12084    4.11629   11.86438    5.33364
     124      444        3    -0.05395    4.57816   11.84088    6.65852
     125      444        3    -0.05395    3.67270   11.85748    7.71498
     126      444        3     0.67830    5.09158   11.85686    4.20019
     127      444        3     0.64160    2.42088    6.32546   23.63865
     128      444        3     0.22944    2.97817    6.83433   25.65792
     129      444        3    -0.12084    2.27947    7.25604    5.36469
     130      444        3    -0.05395    1.81792    7.27103    6.68957
     131      444        3    -0.05395    2.72286    7.24836    7.74577
     132      444        3     0.67830    1.29893    7.26977    4.23535
     133      444        3     0.64160    0.01699    2.41438   23.62428
     134      444        3     0.22944   12.27485    2.97304   25.64688
     135      444        3    -0.12084   11.85803    2.29526    5.33851
     136      444        3    -0.05395   11.84106    1.82074    6.65903
     137      444        3    -0.05395   11.86388    2.71545    7.72396
     138      444        3     0.67830   11.85004    1.32726    4.19891
     139      444        3     0.64160    6.33688    3.93776   23.63557
     140      444        3     0.22944    6.85974    3.38806   25.65330
     141      444        3    -0.12084    7.28468    4.08473    5.33441
     142      444        3    -0.05395    7.31118    4.54560    6.65980
     143      444        3    -0.05395    7.29299    3.64026    7.71626
     144      444        3     0.67830    7.29255    5.06130    4.20122
     145      444        3     0.64160   10.35217   12.69559   10.80328
     146      444        3     0.22944    9.76635    0.43415   12.82922
     147      444        3    -0.12084   10.47337    0.88205   18.19493
     148      444        3    -0.05395   10.93492    0.88543   19.52006
     149      444        3    -0.05395   10.02989    0.85828   20.57576
     150      444        3     0.67830   11.45423    0.89805   17.06456
     151      444        3     0.64160    8.81379    6.40787   10.80585
     152      444        3     0.22944    9.36404    5.89965   12.82793
     153      444        3    -0.12084    8.65911    5.47914   18.16465
     154      444        3    -0.05395    8.19704    5.46865   19.48953
     155      444        3    -0.05395    9.10245    5.49021   20.54419
     156      444        3     0.67830    7.68430    5.46723   17.03095
     157      444        3     0.64160    6.41849   10.31183   10.81431
     158      444        3     0.22944    5.89616    9.76423   12.83306
     159      444        3    -0.12084    5.47200   10.47734   18.19365
     160      444        3    -0.05395    5.47172   10.93808   19.51904
     161      444        3    -0.05395    5.49632   10.03265   20.57499
     162      444        3     0.67830    5.46154   11.45884   17.06405
     163      444        3     0.64160   12.73950    8.79923   10.80431
     164      444        3     0.22944    0.49339    9.34727   12.82537
     165      444        3    -0.12084    0.90484    8.63536   18.17209
     166      444        3    -0.05395    0.91674    8.16068   19.49261
     167      444        3    -0.05395    0.89661    9.05550   20.55702
     168      444        3     0.67830    0.91017    7.66794   17.03197
     169      444        3     0.64160    8.83270   12.70152    2.02363
     170      444        3     0.22944    9.36150    0.46673    0.00000
     171      444        3    -0.12084    8.64760    0.87119   20.32659
     172      444        3    -0.05395    8.18561    0.89426   19.00171
     173      444        3    -0.05395    9.09101    0.87770   17.94474
     174      444        3     0.67830    7.67246    0.87868   21.46029
     175      444        3     0.64160   10.34421    6.40711    2.02311
     176      444        3     0.22944    9.78700    5.89690    0.00000
     177      444        3    -0.12084   10.48474    5.47890   20.29605
     178      444        3    -0.05395   10.94631    5.46272   18.97118
     179      444        3    -0.05395   10.04143    5.48577   17.91523
     180      444        3     0.67830   11.46540    5.46545   21.42565
     181      444        3     0.64160   12.74635   10.31983    2.03492
     182      444        3     0.22944    0.48937    9.76143    0.00000
     183      444        3    -0.12084    0.90603   10.44007   20.32094
     184      444        3    -0.05395    0.92215   10.91468   18.99940
     185      444        3    -0.05395    0.89980   10.01995   17.93575
     186      444        3     0.67830    0.91408   11.40792   21.46106
     187      444        3     0.64160    6.42739    8.79701    2.02491
     188      444        3     0.22944    5.90387    9.34684    0.00000
     189      444        3    -0.12084    5.47871    8.65028   20.32582
     190      444        3    -0.05395    5.45263    8.18948   19.00043
     191      444        3    -0.05395    5.47096    9.09490   17.94397
     192      444        3     0.67830    5.47090    7.67370   21.45901
     193      444        4    -0.34606    1.27396    0.00388   14.12073
     194      444        4    -0.34606    1.68409   12.44777   12.80843
     195      444        4    -0.56410    3.52097   12.48943   14.06941
     196      444        4    -0.67930    2.46087    0.31397   16.16899
     197      444        4    -0.34606    5.09217    6.36240   14.12279
     198      444        4    -0.34606    4.71318    6.67650   12.81305
     199      444        4    -0.56410    2.86920    6.63559   14.06582
     200      444        4    -0.67930    3.89374    6.03225   16.16104
     201      444        4    -0.34606    6.38003    1.28276   14.11509
     202      444        4    -0.34606    6.70208    1.65993   12.80638
     203      444        4    -0.56410    6.66461    3.50263   14.06017
     204      444        4    -0.67930    6.03861    2.48248   16.15052
     205      444        4    -0.34606   12.75381    5.07736   14.12279
     206      444        4    -0.34606   12.44097    4.69921   12.81254
     207      444        4    -0.56410   12.46314    2.85667   14.06736
     208      444        4    -0.67930    0.31669    3.87842   16.16309
     209      444        4    -0.34606    5.07302    0.00069   24.36768
     210      444        4    -0.34606    4.72691   12.43104    0.01822
     211      444        4    -0.56410    2.87315   12.45778   24.42311
     212      444        4    -0.67930    3.87632    0.32155   22.32738
     213      444        4    -0.34606    1.28212    6.35713   24.37410
     214      444        4    -0.34606    1.67788    6.67332    0.02181
     215      444        4    -0.56410    3.50451    6.63722   24.42234
     216      444        4    -0.67930    2.47460    6.02872   22.33174
     217      444        4    -0.34606   12.74053    1.27584   24.36024
     218      444        4    -0.34606   12.44645    1.66285    0.00949
     219      444        4    -0.56410   12.46608    3.49858   24.40977
     220      444        4    -0.67930    0.30333    2.46629   22.31506
     221      444        4    -0.34606    6.37337    5.07907   24.36691
     222      444        4    -0.34606    6.70863    4.70198    0.01386
     223      444        4    -0.56410    6.65421    2.85694   24.42054
     224      444        4    -0.67930    6.02986    3.87965   22.33097
     225      444        4    -0.34606   11.49017   12.73154   11.53975
     226      444        4    -0.34606   11.07998    0.28708   12.85205
     227      444        4    -0.56410    9.24317    0.24588   11.59133
     228      444        4    -0.67930   10.30336   12.42256    9.49123
     229      444        4    -0.34606    7.67228    6.37304   11.53795
     230      444        4    -0.34606    8.05141    6.05876   12.84769
     231      444        4    -0.56410    9.89521    6.09930   11.59441
     232      444        4    -0.67930    8.87037    6.70284    9.49944
     233      444        4    -0.34606    6.38412   11.45289   11.54540
     234      444        4    -0.34606    6.06220   11.07576   12.85411
     235      444        4    -0.56410    6.09980    9.23300   11.60057
     236      444        4    -0.67930    6.72551   10.25310    9.50997
     237      444        4    -0.34606    0.00813    7.65799   11.53641
     238      444        4    -0.34606    0.32409    8.03597   12.84667
     239      444        4    -0.56410    0.30122    9.87866   11.59210
     240      444        4    -0.67930   12.44644    8.85724    9.49662
     241      444        4    -0.34606    7.69187   12.73209    1.29152
     242      444        4    -0.34606    8.03761    0.30269   25.64175
     243      444        4    -0.56410    9.89186    0.27353    1.23609
     244      444        4    -0.67930    8.88946   12.40610    3.33105
     245      444        4    -0.34606   11.48286    6.37618    1.28767
     246      444        4    -0.34606   11.08712    6.05903   25.63996
     247      444        4    -0.56410    9.26065    6.09437    1.23968
     248      444        4    -0.67930   10.29051    6.70379    3.33028
     249      444        4    -0.34606    0.01941   11.45851    1.29973
     250      444        4    -0.34606    0.31818   11.07166   25.65048
     251      444        4    -0.56410    0.29736    9.23569    1.24969
     252      444        4    -0.67930   12.45850   10.26760    3.34414
     253      444        4    -0.34606    6.39171    7.65588    1.29331
     254      444        4    -0.34606    6.05593    8.03305   25.64663
     255      444        4    -0.56410    6.10921    9.87780    1.24045
     256      444        4    -0.67930    6.73428    8.85496    3.32977
     257      444        5    -0.58922    1.78084   12.12047    9.76735
     258      444        5    -0.63117    0.09736   11.54060    8.38627
     259      444        5    -0.58922    4.60639    6.97007    9.79763
     260      444        5    -0.63117    6.29202    7.57888    8.43477
     261      444        5    -0.58922    7.02360    1.74871    9.76991
     262      444        5    -0.63117    7.59090    0.06192    8.38601
     263      444        5    -0.58922   12.13653    4.58504    9.79583
     264      444        5    -0.63117   11.56583    6.28535    8.43477
     265      444        5    -0.58922    4.61840   12.15893    3.03313
     266      444        5    -0.63117    6.30356   11.54616    4.39445
     267      444        5    -0.58922    1.76684    6.96887    3.06572
     268      444        5    -0.63117    0.09003    7.58304    4.44089
     269      444        5    -0.58922   12.13231    1.80792    3.02979
     270      444        5    -0.63117   11.55798    0.11062    4.39188
     271      444        5    -0.58922    6.99037    4.58977    3.03339
     272      444        5    -0.63117    7.60286    6.27317    4.39701
     273      444        5    -0.58922   10.98312    0.61525   15.89288
     274      444        5    -0.63117   12.66632    1.19533   17.27242
     275      444        5    -0.58922    8.15811    5.76541   15.86312
     276      444        5    -0.63117    6.47226    5.15668   17.22597
     277      444        5    -0.58922    5.74081   10.98673   15.89057
     278      444        5    -0.63117    5.17345   12.67339   17.27319
     279      444        5    -0.58922    0.62801    8.15037   15.86389
     280      444        5    -0.63117    1.19852    6.45018   17.22366
     281      444        5    -0.58922    8.14584    0.57691   22.62735
     282      444        5    -0.63117    6.46039    1.18915   21.26629
     283      444        5    -0.58922   10.99764    5.76682   22.59528
     284      444        5    -0.63117   12.67430    5.15226   21.22011
     285      444        5    -0.58922    0.63142   10.92724   22.62992
     286      444        5    -0.63117    1.20620   12.62461   21.26835
     287      444        5    -0.58922    5.77214    8.14552   22.62530
     288      444        5    -0.63117    5.16139    6.46165   21.26347
     289      444        1     0.82513    0.53657   24.61813   11.24054
     290      444        1     0.82513    5.92374   19.97477   11.24722
     291      444        1     0.82513    7.27167   13.20479   11.23926
     292      444        1     0.82513   11.92186   18.62538   11.24388
     293      444        1     0.82513    5.93761   24.62055    1.58636
     294      444        1     0.82513    0.52582   19.97523    1.59073
     295      444        1     0.82513   11.91737   13.23384    1.58790
     296      444        1     0.82513    7.28371   18.62435    1.58328
     297      444        1     0.82513   12.27204   13.59134   14.41968
     298      444        1     0.82513    6.88524   18.23480   14.41327
     299      444        1     0.82513    5.53712   25.00481   14.42122
     300      444        1     0.82513    0.88699   19.58397   14.41609
     301      444        1     0.82513    6.87108   13.58851   24.07438
     302      444        1     0.82513   12.28315   18.23362   24.06976
     303      444        1     0.82513    0.89160   24.97473   24.07207
     304      444        1     0.82513    5.52532   19.58471   24.07515
     305      444        2     0.09728    3.60295   24.79242   11.94981
     306      444        2     0.09728    0.77899   24.58078    5.95207
     307      444        2     0.09728    2.40248   24.63593    4.05521
     308      444        2     0.35917    3.38219   13.01169   16.66348
     309      444        2     0.35917    1.61750   13.32261   16.65270
     310      444        2     0.09728    2.84618   19.83237   11.95033
     311      444        2     0.09728    5.66169   20.01411    5.98286
     312      444        2     0.09728    4.03779   19.96730    4.08574
     313      444        2     0.35917    3.01901   18.83171   16.65655
     314      444        2     0.35917    4.78173   18.50645   16.64732
     315      444        2     0.09728    7.15881   16.28478   11.94827
     316      444        2     0.09728    7.31636   13.46181    5.95284
     317      444        2     0.09728    7.26529   15.08551    4.05444
     318      444        2     0.35917    6.13586   16.11463   16.64860
     319      444        2     0.35917    5.79429   14.35500   16.63859
     320      444        2     0.09728   12.03199   15.54944   11.95084
     321      444        2     0.09728   11.86168   18.38561    5.98902
     322      444        2     0.09728   11.90431   16.78059    4.07625
     323      444        2     0.35917    0.27723   15.71915   16.66015
     324      444        2     0.35917    0.60903   17.47986   16.64783
     325      444        2     0.09728    2.85995   24.74741    0.87966
     326      444        2     0.09728    5.67256   24.56367    6.84738
     327      444        2     0.09728    4.04885   24.59984    8.74424
     328      444        2     0.35917    3.00352   12.98642   21.82981
     329      444        2     0.35917    4.76484   13.31903   21.84110
     330      444        2     0.09728    3.59242   19.83431    0.87504
     331      444        2     0.09728    0.76805   20.02033    6.87792
     332      444        2     0.09728    2.39130   19.97317    8.77503
     333      444        2     0.35917    3.39161   18.83737   21.83315
     334      444        2     0.35917    1.63086   18.50050   21.84546
     335      444        2     0.09728   12.05376   16.29182    0.86683
     336      444        2     0.09728   11.85094   13.48384    6.83712
     337      444        2     0.09728   11.89633   15.08843    8.74963
     338      444        2     0.35917    0.27457   16.10036   21.81801
     339      444        2     0.35917    0.59614   14.33728   21.83366
     340      444        2     0.09728    7.16047   15.55029    0.87196
     341      444        2     0.09728    7.35082   18.35473    6.84815
     342      444        2     0.09728    7.31223   16.73151    8.74552
     343      444        2     0.35917    6.12580   15.72199   21.83238
     344      444        2     0.35917    5.79363   17.48326   21.84392
     345      444        2     0.09728    9.20550   13.41595   13.71067
     346      444        2     0.09728   12.02928   13.62969   19.70816
     347      444        2     0.09728   10.40594   13.57449   21.60502
     348      444        2     0.35917    9.42637   25.19816    8.99700
     349      444        2     0.35917   11.19112   24.88744    9.00752
     350      444        2     0.09728    9.96293   18.37630   13.70964
     351      444        2     0.09728    7.14699   18.19637   19.67814
     352      444        2     0.09728    8.77089   18.24311   21.57525
     353      444        2     0.35917    9.78948   19.37740    9.00367
     354      444        2     0.35917    8.02681   19.70291    9.01317
     355      444        2     0.09728    5.65017   21.92490   13.71247
     356      444        2     0.09728    5.49151   24.74718   19.70765
     357      444        2     0.09728    5.54184   23.12348   21.60399
     358      444        2     0.35917    6.67288   22.09486    9.01189
     359      444        2     0.35917    7.01437   23.85451    9.02164
     360      444        2     0.09728    0.77787   22.65961   13.70836
     361      444        2     0.09728    0.94738   19.82370   19.67069
     362      444        2     0.09728    0.90460   21.42862   21.58346
     363      444        2     0.35917   12.53083   22.49042    8.99957
     364      444        2     0.35917   12.19906   20.72971    9.01189
     365      444        2     0.09728    9.94897   13.45941   24.77980
     366      444        2     0.09728    7.13565   13.64504   18.81310
     367      444        2     0.09728    8.75925   13.60898   16.91599
     368      444        2     0.35917    9.80605   25.21860    3.82939
     369      444        2     0.35917    8.04476   24.88634    3.81810
     370      444        2     0.09728    9.21728   18.36978   24.78647
     371      444        2     0.09728   12.04065   18.18673   18.78128
     372      444        2     0.09728   10.41750   18.23391   16.88596
     373      444        2     0.35917    9.41790   19.36944    3.82862
     374      444        2     0.35917   11.17853   19.70717    3.81605
     375      444        2     0.09728    0.75508   21.91675   24.79289
     376      444        2     0.09728    0.95655   24.72555   18.82285
     377      444        2     0.09728    0.91127   23.12099   16.91008
     378      444        2     0.35917   12.53279   22.10767    3.84145