Created on Tue Feb 06 15:22:47 2018 

        1728 atoms
        1920 bonds
        3200 angles
        3840 dihedrals
        2688 impropers

           5 atom types
           7 bond types
          13 angle types
           3 dihedral types
           1 improper types
           0.000000  26.140000 xlo xhi
           0.000000  30.495993 ylo yhi
           0.000000  38.283998 zlo zhi
           0.019161   0.002671   0.010689 xy xz yz

Masses

    1   112.411000000 # Cd3+2
    2     1.007940000 # H_
    3    12.010700000 # C_R
    4    14.006700000 # N_R
    5    15.999400000 # O_R

Bond Coeffs

    1      152.700732        2.089900  # Cd3+2 N_R
    2      147.192711        2.045725  # Cd3+2 O_R
    3      357.440381        1.081418  # H_ C_R
    4      462.655054        1.379256  # C_R C_R
    5      663.718927        1.345073  # C_R N_R
    6      391.669513        1.458000  # C_R C_R
    7      646.680887        1.311940  # C_R O_R

Angle Coeffs

    1                      fourier       33.010492        0.343737        0.374972        0.281246 # N_R Cd3+2 N_R
    2                      fourier       31.469575        0.343737        0.374972        0.281246 # N_R Cd3+2 O_R
    3                      fourier       30.023701        0.343737        0.374972        0.281246 # O_R Cd3+2 O_R
    4              cosine/periodic       76.817955              -1               3 # H_ C_R C_R
    5              cosine/periodic      109.704024              -1               3 # H_ C_R N_R
    6              cosine/periodic      165.695700              -1               3 # C_R C_R N_R
    7              cosine/periodic      117.010657              -1               3 # C_R C_R C_R
    8              cosine/periodic      101.626578              -1               3 # C_R C_R C_R
    9              cosine/periodic      217.450257              -1               3 # O_R C_R O_R
   10              cosine/periodic      137.761490              -1               3 # O_R C_R C_R
   11              cosine/periodic       33.294741              -1               3 # Cd3+2 N_R C_R
   12              cosine/periodic      132.654363              -1               3 # C_R N_R C_R
   13              cosine/periodic       45.673393              -1               3 # Cd3+2 O_R C_R

Dihedral Coeffs

    1        1.497136              -1               2 # H_ C_R C_R H_
    2        0.555556              -1               2 # C_R C_R C_R O_R
    3        2.245703              -1               2 # O_R C_R O_R Cd3+2

Improper Coeffs

    1        2.000000        1.000000       -1.000000        0.000000               0 # H_ C_R C_R N_R

Pair Coeffs

    1        0.228000        2.537280 # Cd3+2 Cd3+2
    2        0.044000        2.571134 # H_ H_
    3        0.105000        3.430851 # C_R C_R
    4        0.069000        3.260689 # N_R N_R
    5        0.060000        3.118146 # O_R O_R

Atoms

       1      444        1     0.91472    4.29686    3.47182   15.91399
       2      444        1     0.91614    2.24349   11.77313    6.34077
       3      444        1     0.91444    8.78396   11.09318   12.79777
       4      444        1     0.90887   10.83694    4.15206    3.22939
       5      444        1     0.91827    8.78365   11.78187    3.22755
       6      444        1     0.91406   10.83708    3.48051   12.80083
       7      444        1     0.90873    4.29658    4.16046    6.34368
       8      444        1     0.91296    2.24365   11.10161   15.91221
       9      444        2     0.10340    6.65643    4.24358   13.99447
      10      444        2     0.12817    8.05721    6.20192   13.24747
      11      444        2     0.14643    5.43014    8.77011   15.50712
      12      444        2     0.10897    4.10639    6.73059   16.13062
      13      444        2     0.09098    6.11169    1.39128   17.55317
      14      444        2     0.14155    7.87140    1.35569    0.22995
      15      444        2     0.14129    6.70825    5.37174    1.23209
      16      444        2     0.09951    5.03059    5.27467   18.48593
      17      444        2     0.10140    0.00722   11.00854    4.42536
      18      444        2     0.12802   11.54413    9.05535    3.68187
      19      444        2     0.14573    1.09493    6.47776    5.93768
      20      444        2     0.10808    2.42706    8.51291    6.55914
      21      444        2     0.09028    0.42473   13.85869    7.97616
      22      444        2     0.14271   11.74658   13.89124    9.80700
      23      444        2     0.14127    0.00696    9.88046   10.81360
      24      444        2     0.09817    1.52114    9.98102    8.91464
      25      444        2     0.10330    6.42662   11.86713   14.71928
      26      444        2     0.12813    5.02847   13.82716   15.46702
      27      444        2     0.14658    7.64846    1.14421   13.20660
      28      444        2     0.10903    8.97842   14.35069   12.58183
      29      444        2     0.09074    6.97061    9.01165   11.15921
      30      444        2     0.14093    5.20967    8.97974    9.34036
      31      444        2     0.14103    6.37385   12.99452    8.33402
      32      444        2     0.09982    8.05265   12.89363   10.22259
      33      444        2     0.10311    0.12541    3.38538    5.14656
      34      444        2     0.12238    1.53218    1.43052    5.89085
      35      444        2     0.11145   11.98909   14.10405    3.63365
      36      444        2     0.11367   10.65049    0.89323    3.01109
      37      444        2     0.08801   12.65920    6.23680    1.59394
      38      444        2     0.13855    1.33799    6.27240   18.90471
      39      444        2     0.14078    0.15552    2.26280   17.89909
      40      444        2     0.10100   11.55777    2.36056    0.65615
      41      444        2     0.10368    6.42384   11.01012    5.14679
      42      444        2     0.12824    5.02312    9.05177    5.89380
      43      444        2     0.14647    7.65041    6.48358    3.63440
      44      444        2     0.10913    8.97408    8.52314    3.01085
      45      444        2     0.08790    6.96892   13.86252    1.58819
      46      444        2     0.13870    5.20927   13.89808   18.91136
      47      444        2     0.14097    6.37257    9.88206   17.90924
      48      444        2     0.09964    8.05022    9.97920    0.65540
      49      444        2     0.10284    0.12693    4.24513   14.71627
      50      444        2     0.12756    1.53636    6.19830   15.45975
      51      444        2     0.14644   11.98566    8.77594   13.20392
      52      444        2     0.10929   10.65348    6.74083   12.58244
      53      444        2     0.09096   12.65608    1.39508   11.16562
      54      444        2     0.14134    1.33420    1.36247    9.33477
      55      444        2     0.14128    0.15639    5.37314    8.32794
      56      444        2     0.10032   11.55949    5.27262   10.22694
      57      444        2     0.10370    6.65392    3.38650    4.42205
      58      444        2     0.12301    8.05204    1.42644    3.67440
      59      444        2     0.11238    5.43205   14.10950    5.93496
      60      444        2     0.11330    4.10210    0.90305    6.55964
      61      444        2     0.09105    6.11035    6.24197    7.98189
      62      444        2     0.14103    7.87140    6.27384    9.80061
      63      444        2     0.14109    6.70653    2.25939   10.80763
      64      444        2     0.10037    5.02766    2.36032    8.91910
      65      444        2     0.10081    0.00843   11.86831   13.99496
      66      444        2     0.12782   11.54847   13.82316   13.25067
      67      444        2     0.14638    1.09145    1.14962   15.50801
      68      444        2     0.10801    2.43013   14.36048   16.13047
      69      444        2     0.09035    0.42160    9.01694   17.54776
      70      444        2     0.14272   11.74268    8.98133    0.23686
      71      444        2     0.14127    0.00825   12.99109    1.24233
      72      444        2     0.09816    1.52270   12.89332   18.48539
      73      444        3     0.12434    6.42585    5.26163   14.30648
      74      444        3    -0.16607    7.19982    6.34255   13.90368
      75      444        3     0.01846    6.85996    7.62785   14.33826
      76      444        3    -0.16197    5.73558    7.78330   15.15784
      77      444        3     0.12651    4.99848    6.65450   15.50936
      78      444        3     0.59360    7.66399    8.81305   13.86958
      79      444        3     0.12998    6.29172    2.25445   18.19399
      80      444        3    -0.16867    7.24599    2.23086    0.05997
      81      444        3     0.02419    7.42977    3.37386    0.84502
      82      444        3    -0.15729    6.60525    4.47990    0.61633
      83      444        3     0.12547    5.68277    4.43267   18.71879
      84      444        3     0.59460    8.56765    3.42745    1.83126
      85      444        3     0.12552    0.11023    9.98972    4.73807
      86      444        3    -0.16374   12.40166    8.91161    4.33716
      87      444        3     0.01790   12.73719    7.62507    4.77145
      88      444        3    -0.16124    0.79234    7.46567    5.58891
      89      444        3     0.12641    1.53420    8.59185    5.93909
      90      444        3     0.59344   11.92960    6.44252    4.30092
      91      444        3     0.13487    0.25048   12.99699    8.62064
      92      444        3    -0.17084   12.37259   13.01673    9.63551
      93      444        3     0.02529   12.19671   11.87570   10.42538
      94      444        3    -0.15796    0.00748   10.77077   10.19474
      95      444        3     0.12550    0.86785   10.82169    9.14867
      96      444        3     0.59437   11.06447   11.82020   11.41780
      97      444        3     0.12436    6.65838   12.88490   14.40736
      98      444        3    -0.16625    5.88561   13.96665   14.81022
      99      444        3     0.01838    6.22728   15.25154   14.37587
     100      444        3    -0.16191    7.34165    0.15768   13.55550
     101      444        3     0.12681    8.08681   14.27589   13.20390
     102      444        3     0.59396    5.41420    1.18952   14.84393
     103      444        3     0.12978    6.79067    9.87429   10.51763
     104      444        3    -0.16845    5.83516    9.85504    9.50955
     105      444        3     0.02384    5.65143   10.99745    8.72356
     106      444        3    -0.15617    6.47662   12.10326    8.95070
     107      444        3     0.12462    7.40014   12.05170    9.99065
     108      444        3     0.59410    4.51336   11.05122    7.73752
     109      444        3     0.12590   12.96750    2.36682    4.83397
     110      444        3    -0.15969    0.67510    1.28794    5.23474
     111      444        3     0.02708    0.33772    0.00180    4.80068
     112      444        3    -0.15480   12.28337    0.00111    3.98207
     113      444        3     0.13593   11.54272    0.97083    3.63216
     114      444        3     0.59339    1.15420   14.06651    5.27092
     115      444        3     0.13574   12.83214    5.37477    0.94954
     116      444        3    -0.17080    0.70985    5.39345    0.00000
     117      444        3     0.02037    0.88538    4.25716   18.28693
     118      444        3    -0.15748    0.05926    3.15332   18.51782
     119      444        3     0.13071   12.21207    3.20034    0.42187
     120      444        3     0.59454    2.01691    4.19949   17.29378
     121      444        3     0.12395    6.65442    9.99208    4.83477
     122      444        3    -0.16571    5.88058    8.91113    5.23769
     123      444        3     0.01783    6.22045    7.62583    4.80313
     124      444        3    -0.16150    7.34493    7.47039    3.98368
     125      444        3     0.12645    8.08191    8.59922    3.63200
     126      444        3     0.59380    5.41657    6.44058    5.27197
     127      444        3     0.13609    6.78891   12.99935    0.94738
     128      444        3    -0.17070    5.83340   13.01761    0.00000
     129      444        3     0.02152    5.65094   11.87988   18.29632
     130      444        3    -0.15782    6.47557   10.77392   18.52498
     131      444        3     0.13151    7.39797   10.82115    0.42260
     132      444        3     0.59399    4.51305   11.82619   17.31009
     133      444        3     0.12440   12.97032    5.26394   14.40344
     134      444        3    -0.16554    0.67875    6.34205   14.80458
     135      444        3     0.01749    0.34342    7.62857   14.37009
     136      444        3    -0.16114   12.28813    7.78804   13.55282
     137      444        3     0.12653   11.54640    6.66185   13.20237
     138      444        3     0.59227    1.15086    8.81110   14.84087
     139      444        3     0.12876   12.83030    2.25674   10.52113
     140      444        3    -0.16890    0.70813    2.23696    9.50620
     141      444        3     0.02356    0.88399    3.37796    8.71629
     142      444        3    -0.15699    0.05908    4.48286    8.94684
     143      444        3     0.12541   12.21285    4.43198    9.99298
     144      444        3     0.59514    2.01612    3.43338    7.72376
     145      444        3     0.12595    6.42202    2.36871    4.73384
     146      444        3    -0.16053    7.19499    1.28697    4.33132
     147      444        3     0.02842    6.85317    0.00208    4.76553
     148      444        3    -0.15671    5.72945    0.00156    5.58613
     149      444        3     0.13644    4.99360    0.97780    5.93737
     150      444        3     0.59427    7.66644   14.06409    4.29784
     151      444        3     0.12966    6.29056    5.37920    8.62322
     152      444        3    -0.16786    7.24550    5.39876    9.63181
     153      444        3     0.02333    7.42943    4.25620   10.41752
     154      444        3    -0.15690    6.60364    3.15070   10.19105
     155      444        3     0.12439    5.68073    3.20200    9.15056
     156      444        3     0.59454    8.56703    4.20270   11.40413
     157      444        3     0.12607    0.11308   12.88686   14.30767
     158      444        3    -0.16364   12.40562   13.96577   13.90670
     159      444        3     0.01778   12.74280   15.25186   14.34098
     160      444        3    -0.16191    0.78779    0.16200   15.15941
     161      444        3     0.12682    1.53782   14.28286   15.50952
     162      444        3     0.59317   11.92640    1.18716   13.87062
     163      444        3     0.13515    0.24841    9.87907   18.19196
     164      444        3    -0.17096   12.36957    9.85494    0.06531
     165      444        3     0.02602   12.19507   10.99667    0.85452
     166      444        3    -0.15733    0.00765   12.10047    0.62378
     167      444        3     0.12415    0.86829   12.05358   18.71955
     168      444        3     0.59393   11.06373   11.05409    1.84789
     169      444        4    -0.33822    5.33842    5.41100   15.09890
     170      444        4    -0.32451    5.54057    3.34587   17.93008
     171      444        4    -0.34165    1.19861    9.83643    5.52842
     172      444        4    -0.32573    1.00210   11.90632    8.35562
     173      444        4    -0.33794    7.74530   13.03271   13.61392
     174      444        4    -0.32403    7.54212   10.96572   10.78056
     175      444        4    -0.33816   11.87982    2.21511    4.04237
     176      444        4    -0.32521   12.07920    4.28512    1.21492
     177      444        4    -0.33860    7.74197    9.84270    4.04250
     178      444        4    -0.32726    7.54015   11.90797    1.21127
     179      444        4    -0.33796   11.88179    5.41730   13.61329
     180      444        4    -0.32285   12.07861    3.34737   10.78606
     181      444        4    -0.33849    5.33532    2.22100    5.52758
     182      444        4    -0.32322    5.53823    4.28818    8.36105
     183      444        4    -0.34148    1.20087   13.03861   15.09909
     184      444        4    -0.32582    1.00156   10.96862   17.92681
     185      444        5    -0.58484    7.44391    9.94586   14.41408
     186      444        5    -0.56256    8.48969    8.64213   12.91995
     187      444        5    -0.56559    8.65228    4.45698    2.59248
     188      444        5    -0.58245    9.41057    2.48668    1.81815
     189      444        5    -0.58518   12.14755    5.30828    4.84578
     190      444        5    -0.56201   11.10630    6.61466    3.35046
     191      444        5    -0.56544   10.98151   10.78796   12.17496
     192      444        5    -0.58105   10.22218   12.76184   11.41200
     193      444        5    -0.58476    5.63551    2.32215   14.29934
     194      444        5    -0.56317    4.58837    1.01945   15.79347
     195      444        5    -0.56640    4.42879   12.08060    6.97617
     196      444        5    -0.58146    3.66950   10.11119    7.75144
     197      444        5    -0.58121    0.93441   12.93214    4.72677
     198      444        5    -0.55812    1.97767   14.23811    6.22113
     199      444        5    -0.56546    2.09891    3.16614   16.53813
     200      444        5    -0.58023    2.85981    5.14064   17.29744
     201      444        5    -0.58469    5.63666    5.30778    4.72748
     202      444        5    -0.56261    4.59088    6.61148    6.22161
     203      444        5    -0.56497    4.42833   10.79654   16.54906
     204      444        5    -0.58008    3.67008   12.76692   17.32320
     205      444        5    -0.58265    0.93306    9.94533   14.29591
     206      444        5    -0.56151    1.97427    8.63889   15.79123
     207      444        5    -0.56601    2.09910    4.46567    6.96667
     208      444        5    -0.58210    2.85837    2.49171    7.72946
     209      444        5    -0.58334    7.44499   12.93145    4.84233
     210      444        5    -0.55910    8.49216   14.23407    3.34818
     211      444        5    -0.56583    8.65185    3.17313   12.16520
     212      444        5    -0.58138    9.41130    5.14235   11.38968
     213      444        5    -0.58465   12.14610    2.32149   14.41490
     214      444        5    -0.56246   11.10282    1.01551   12.92052
     215      444        5    -0.56579   10.98160   12.08745    2.60352
     216      444        5    -0.58199   10.22069   10.11306    1.84389
     217      444        1     0.91472    4.29820    3.47717   35.05599
     218      444        1     0.91614    2.24482   11.77848   25.48277
     219      444        1     0.91444    8.78530   11.09853   31.93977
     220      444        1     0.90887   10.83827    4.15741   22.37139
     221      444        1     0.91827    8.78498   11.78721   22.36955
     222      444        1     0.91406   10.83841    3.48586   31.94283
     223      444        1     0.90873    4.29791    4.16581   25.48568
     224      444        1     0.91296    2.24499   11.10696   35.05421
     225      444        2     0.10340    6.65776    4.24893   33.13647
     226      444        2     0.12817    8.05854    6.20726   32.38947
     227      444        2     0.14643    5.43148    8.77546   34.64912
     228      444        2     0.10897    4.10773    6.73594   35.27262
     229      444        2     0.09098    6.11303    1.39662   36.69517
     230      444        2     0.14155    7.87274    1.36103   19.37195
     231      444        2     0.14129    6.70959    5.37709   20.37409
     232      444        2     0.09951    5.03193    5.28002   37.62793
     233      444        2     0.10140    0.00856   11.01388   23.56736
     234      444        2     0.12802   11.54546    9.06069   22.82387
     235      444        2     0.14573    1.09626    6.48310   25.07968
     236      444        2     0.10808    2.42840    8.51826   25.70114
     237      444        2     0.09028    0.42607   13.86404   27.11816
     238      444        2     0.14271   11.74792   13.89658   28.94900
     239      444        2     0.14127    0.00830    9.88580   29.95560
     240      444        2     0.09817    1.52248    9.98637   28.05664
     241      444        2     0.10330    6.42796   11.87247   33.86128
     242      444        2     0.12813    5.02981   13.83251   34.60902
     243      444        2     0.14658    7.64980    1.14955   32.34860
     244      444        2     0.10903    8.97976   14.35603   31.72382
     245      444        2     0.09074    6.97194    9.01699   30.30121
     246      444        2     0.14093    5.21100    8.98509   28.48236
     247      444        2     0.14103    6.37518   12.99986   27.47602
     248      444        2     0.09982    8.05399   12.89898   29.36459
     249      444        2     0.10311    0.12674    3.39072   24.28856
     250      444        2     0.12238    1.53352    1.43586   25.03285
     251      444        2     0.11145   11.99043   14.10940   22.77565
     252      444        2     0.11367   10.65183    0.89857   22.15309
     253      444        2     0.08801   12.66054    6.24214   20.73593
     254      444        2     0.13855    1.33933    6.27775   38.04671
     255      444        2     0.14078    0.15686    2.26814   37.04109
     256      444        2     0.10100   11.55911    2.36590   19.79815
     257      444        2     0.10368    6.42517   11.01547   24.28879
     258      444        2     0.12824    5.02446    9.05712   25.03580
     259      444        2     0.14647    7.65174    6.48892   22.77639
     260      444        2     0.10913    8.97542    8.52849   22.15284
     261      444        2     0.08790    6.97026   13.86786   20.73019
     262      444        2     0.13870    5.21060   13.90343   38.05336
     263      444        2     0.14097    6.37391    9.88740   37.05123
     264      444        2     0.09964    8.05156    9.98455   19.79740
     265      444        2     0.10284    0.12826    4.25047   33.85827
     266      444        2     0.12756    1.53769    6.20364   34.60175
     267      444        2     0.14644   11.98700    8.78128   32.34592
     268      444        2     0.10929   10.65481    6.74617   31.72444
     269      444        2     0.09096   12.65742    1.40042   30.30762
     270      444        2     0.14134    1.33554    1.36781   28.47677
     271      444        2     0.14128    0.15773    5.37849   27.46994
     272      444        2     0.10032   11.56082    5.27797   29.36894
     273      444        2     0.10370    6.65525    3.39185   23.56405
     274      444        2     0.12301    8.05337    1.43178   22.81640
     275      444        2     0.11238    5.43338   14.11484   25.07696
     276      444        2     0.11330    4.10344    0.90839   25.70164
     277      444        2     0.09105    6.11169    6.24731   27.12389
     278      444        2     0.14103    7.87274    6.27919   28.94261
     279      444        2     0.14109    6.70787    2.26473   29.94963
     280      444        2     0.10037    5.02900    2.36566   28.06110
     281      444        2     0.10081    0.00977   11.87366   33.13696
     282      444        2     0.12782   11.54981   13.82850   32.39267
     283      444        2     0.14638    1.09278    1.15497   34.65000
     284      444        2     0.10801    2.43147   14.36582   35.27246
     285      444        2     0.09035    0.42293    9.02228   36.68976
     286      444        2     0.14272   11.74401    8.98668   19.37886
     287      444        2     0.14127    0.00958   12.99644   20.38433
     288      444        2     0.09816    1.52403   12.89866   37.62739
     289      444        3     0.12434    6.42719    5.26697   33.44848
     290      444        3    -0.16607    7.20115    6.34789   33.04568
     291      444        3     0.01846    6.86130    7.63319   33.48026
     292      444        3    -0.16197    5.73692    7.78865   34.29984
     293      444        3     0.12651    4.99982    6.65984   34.65136
     294      444        3     0.59360    7.66533    8.81840   33.01158
     295      444        3     0.12998    6.29305    2.25979   37.33599
     296      444        3    -0.16867    7.24732    2.23620   19.20197
     297      444        3     0.02419    7.43110    3.37920   19.98702
     298      444        3    -0.15729    6.60658    4.48524   19.75833
     299      444        3     0.12547    5.68410    4.43801   37.86079
     300      444        3     0.59460    8.56899    3.43280   20.97326
     301      444        3     0.12552    0.11156    9.99507   23.88007
     302      444        3    -0.16374   12.40299    8.91695   23.47916
     303      444        3     0.01790   12.73852    7.63042   23.91345
     304      444        3    -0.16124    0.79367    7.47101   24.73091
     305      444        3     0.12641    1.53554    8.59719   25.08109
     306      444        3     0.59344   11.93093    6.44786   23.44292
     307      444        3     0.13487    0.25182   13.00234   27.76264
     308      444        3    -0.17084   12.37392   13.02208   28.77751
     309      444        3     0.02529   12.19804   11.88105   29.56738
     310      444        3    -0.15796    0.00881   10.77611   29.33674
     311      444        3     0.12550    0.86918   10.82704   28.29067
     312      444        3     0.59437   11.06581   11.82555   30.55980
     313      444        3     0.12436    6.65972   12.89025   33.54936
     314      444        3    -0.16625    5.88694   13.97199   33.95222
     315      444        3     0.01838    6.22861   15.25688   33.51787
     316      444        3    -0.16191    7.34299    0.16303   32.69750
     317      444        3     0.12681    8.08814   14.28123   32.34590
     318      444        3     0.59396    5.41553    1.19487   33.98593
     319      444        3     0.12978    6.79201    9.87964   29.65963
     320      444        3    -0.16845    5.83649    9.86039   28.65155
     321      444        3     0.02384    5.65277   11.00279   27.86556
     322      444        3    -0.15617    6.47796   12.10861   28.09270
     323      444        3     0.12462    7.40147   12.05704   29.13265
     324      444        3     0.59410    4.51470   11.05657   26.87952
     325      444        3     0.12590   12.96883    2.37216   23.97597
     326      444        3    -0.15969    0.67644    1.29328   24.37674
     327      444        3     0.02708    0.33906    0.00714   23.94268
     328      444        3    -0.15480   12.28471    0.00646   23.12407
     329      444        3     0.13593   11.54405    0.97618   22.77416
     330      444        3     0.59339    1.15554   14.07186   24.41292
     331      444        3     0.13574   12.83348    5.38012   20.09154
     332      444        3    -0.17080    0.71118    5.39879   19.14200
     333      444        3     0.02037    0.88671    4.26251   37.42893
     334      444        3    -0.15748    0.06060    3.15866   37.65982
     335      444        3     0.13071   12.21341    3.20568   19.56387
     336      444        3     0.59454    2.01825    4.20484   36.43578
     337      444        3     0.12395    6.65576    9.99743   23.97677
     338      444        3    -0.16571    5.88191    8.91647   24.37969
     339      444        3     0.01783    6.22178    7.63117   23.94513
     340      444        3    -0.16150    7.34626    7.47573   23.12568
     341      444        3     0.12645    8.08324    8.60457   22.77400
     342      444        3     0.59380    5.41791    6.44592   24.41397
     343      444        3     0.13609    6.79025   13.00469   20.08938
     344      444        3    -0.17070    5.83474   13.02296   19.14200
     345      444        3     0.02152    5.65227   11.88523   37.43832
     346      444        3    -0.15782    6.47690   10.77926   37.66698
     347      444        3     0.13151    7.39930   10.82649   19.56460
     348      444        3     0.59399    4.51439   11.83154   36.45209
     349      444        3     0.12440   12.97166    5.26928   33.54543
     350      444        3    -0.16554    0.68008    6.34740   33.94657
     351      444        3     0.01749    0.34475    7.63392   33.51209
     352      444        3    -0.16114   12.28947    7.79338   32.69482
     353      444        3     0.12653   11.54773    6.66719   32.34437
     354      444        3     0.59227    1.15220    8.81644   33.98287
     355      444        3     0.12876   12.83164    2.26209   29.66313
     356      444        3    -0.16890    0.70947    2.24230   28.64820
     357      444        3     0.02356    0.88532    3.38330   27.85829
     358      444        3    -0.15699    0.06041    4.48821   28.08884
     359      444        3     0.12541   12.21418    4.43733   29.13498
     360      444        3     0.59514    2.01745    3.43873   26.86576
     361      444        3     0.12595    6.42336    2.37405   23.87583
     362      444        3    -0.16053    7.19633    1.29231   23.47332
     363      444        3     0.02842    6.85450    0.00742   23.90753
     364      444        3    -0.15671    5.73079    0.00690   24.72813
     365      444        3     0.13644    4.99493    0.98315   25.07937
     366      444        3     0.59427    7.66778   14.06944   23.43984
     367      444        3     0.12966    6.29189    5.38455   27.76522
     368      444        3    -0.16786    7.24683    5.40410   28.77381
     369      444        3     0.02333    7.43077    4.26154   29.55952
     370      444        3    -0.15690    6.60498    3.15605   29.33305
     371      444        3     0.12439    5.68206    3.20734   28.29256
     372      444        3     0.59454    8.56836    4.20804   30.54613
     373      444        3     0.12607    0.11441   12.89220   33.44967
     374      444        3    -0.16364   12.40695   13.97112   33.04870
     375      444        3     0.01778   12.74414   15.25721   33.48297
     376      444        3    -0.16191    0.78912    0.16735   34.30141