Created on Tue Feb 06 15:06:36 2018 

        2496 atoms
        2752 bonds
        4800 angles
        6016 dihedrals
        3072 impropers

           6 atom types
          10 bond types
          19 angle types
           5 dihedral types
           1 improper types
           0.000000  33.970000 xlo xhi
           0.000000  40.130988 ylo yhi
           0.000000  25.680824 zlo zhi
           9.594604   7.274447   9.561045 xy xz yz

Masses

    1    65.380000000 # Zn4+2
    2     1.007940000 # H_
    3    12.010700000 # C_R
    4    12.010700000 # C_3
    5    14.006700000 # N_R
    6    15.999400000 # O_R

Bond Coeffs

    1      127.647979        1.985391  # Zn4+2 O_R
    2      132.439384        2.028187  # Zn4+2 N_R
    3      357.440381        1.081418  # H_ C_R
    4      331.069389        1.109401  # H_ C_3
    5      663.718927        1.345073  # C_R N_R
    6      462.655054        1.379256  # C_R C_R
    7      529.724731        1.450075  # C_3 N_R
    8      369.943935        1.486000  # C_3 C_R
    9      391.669513        1.458000  # C_R C_R
   10      646.680887        1.311940  # C_R O_R

Angle Coeffs

    1              cosine/periodic       60.397389               1               4 # O_R Zn4+2 O_R
    2              cosine/periodic       63.300260               1               4 # N_R Zn4+2 O_R
    3              cosine/periodic      109.704024              -1               3 # H_ C_R N_R
    4              cosine/periodic      234.844275              -1               3 # N_R C_R N_R
    5              cosine/periodic       76.817955              -1               3 # C_R C_R H_
    6              cosine/periodic      165.695700              -1               3 # C_R C_R N_R
    7                      fourier      105.679036        0.343737        0.374972        0.281246 # H_ C_3 N_R
    8                      fourier       73.868412        0.343737        0.374972        0.281246 # H_ C_3 C_R
    9                      fourier      145.046652        0.343737        0.374972        0.281246 # N_R C_3 C_R
   10                      fourier       61.342703        0.343737        0.374972        0.281246 # H_ C_3 H_
   11              cosine/periodic       96.739224              -1               3 # C_3 C_R C_R
   12              cosine/periodic      117.010657              -1               3 # C_R C_R C_R
   13              cosine/periodic      217.450257              -1               3 # O_R C_R O_R
   14              cosine/periodic      137.761490              -1               3 # C_R C_R O_R
   15              cosine/periodic      101.626578              -1               3 # C_R C_R C_R
   16              cosine/periodic       28.941661              -1               3 # C_R N_R Zn4+2
   17              cosine/periodic      132.654363              -1               3 # C_R N_R C_R
   18              cosine/periodic      109.494736              -1               3 # C_R N_R C_3
   19              cosine/periodic       39.831479              -1               3 # Zn4+2 O_R C_R

Dihedral Coeffs

    1        1.497136              -1               2 # H_ C_R N_R C_R
    2        0.416667              -1               2 # C_R C_3 N_R C_R
    3        0.083333               1               3 # C_R C_R C_3 H_
    4        0.555556              -1               2 # O_R C_R C_R C_R
    5        2.245703              -1               2 # O_R C_R O_R Zn4+2

Improper Coeffs

    1        2.000000        1.000000       -1.000000        0.000000               0 # N_R C_R H_ N_R

Pair Coeffs

    1        0.124000        2.461553 # Zn4+2 Zn4+2
    2        0.044000        2.571134 # H_ H_
    3        0.105000        3.430851 # C_R C_R
    4        0.105000        3.430851 # C_3 C_3
    5        0.069000        3.260689 # N_R N_R
    6        0.060000        3.118146 # O_R O_R

Atoms

       1      444        1     0.97778    9.48368    5.09148    1.97139
       2      444        1     0.97778   11.88228   15.12416    1.97165
       3      444        1     0.97778   17.97627    5.09144    1.97139
       4      444        1     0.97778   20.37469   15.12417    1.97152
       5      444        1     0.97778    5.04648    9.72402   10.87467
       6      444        1     0.97778    7.44497   19.75670   10.87454
       7      444        1     0.97778   13.53912    9.72407   10.87454
       8      444        1     0.97778   15.93784   19.75675   10.87480
       9      444        2     0.11040    2.77689    2.43181    1.27634
      10      444        2     0.11040    5.17522   12.46452    1.27608
      11      444        2     0.11040   11.26936    2.43177    1.27634
      12      444        2     0.11040   13.66777   12.46426    1.27672
      13      444        2     0.11040    6.06216    4.45209    3.01621
      14      444        2     0.11040    8.46059   14.48460    3.01660
      15      444        2     0.11040   14.55479    4.45185    3.01647
      16      444        2     0.11040   16.95340   14.48437    3.01647
      17      444        2     0.11040    3.73652    5.98014    3.35135
      18      444        2     0.11040    6.13491   16.01264    3.35148
      19      444        2     0.11040   12.22919    5.97997    3.35148
      20      444        2     0.11040   14.62786   16.01260    3.35148
      21      444        2     0.11040    6.40018    2.44769    1.16629
      22      444        2     0.11040    8.79853   12.48019    1.16629
      23      444        2     0.11040   14.89267    2.44743    1.16642
      24      444        2     0.11040   17.29120   12.47976    1.16681
      25      444        2     0.11040    5.92433    1.54890    2.59659
      26      444        2     0.11040    8.32251   11.58132    2.59646
      27      444        2     0.11040   14.41669    1.54858    2.59659
      28      444        2     0.11040   16.81487   11.58086    2.59684
      29      444        2     0.11040    6.85342   10.50350    3.46665
      30      444        2     0.11040    9.25307   20.53630    3.46691
      31      444        2     0.11040   15.34560   10.50304    3.46678
      32      444        2     0.11040   17.74529   20.53597    3.46678
      33      444        2     0.11040    6.03738    8.96008    3.25286
      34      444        2     0.11040    8.43621   18.99287    3.25248
      35      444        2     0.11040   14.52965    8.95957    3.25273
      36      444        2     0.11040   16.92865   18.99283    3.25286
      37      444        2     0.11040    7.79244    9.03386    3.13974
      38      444        2     0.11040   10.19151   19.06634    3.13987
      39      444        2     0.11040   16.28475    9.03351    3.13987
      40      444        2     0.11040   18.68375   19.06602    3.13961
      41      444        2     0.11040    9.11835    8.03092   12.37315
      42      444        2     0.11040   11.51693   18.06358   12.37315
      43      444        2     0.11040   17.61082    8.03101   12.37341
      44      444        2     0.11040   20.00963   18.06345   12.37366
      45      444        2     0.11040    9.68852    7.10676   10.98189
      46      444        2     0.11040   12.08720   17.13951   10.98189
      47      444        2     0.11040   18.18105    7.10699   10.98202
      48      444        2     0.11040   20.57992   17.13947   10.98228
      49      444        2     0.11040    8.02974    7.72036   11.02311
      50      444        2     0.11040   10.42842   17.75322   11.02298
      51      444        2     0.11040   16.52227    7.72059   11.02324
      52      444        2     0.11040   18.92117   17.75322   11.02337
      53      444        2     0.11040    8.55329    1.20406    2.17735
      54      444        2     0.11040   10.95152   11.23669    2.17748
      55      444        2     0.11040   17.04569    1.20400    2.17748
      56      444        2     0.11040   19.44397   11.23663    2.17748
      57      444        2     0.11040    4.10162    6.03659   10.73844
      58      444        2     0.11040    6.50000   16.06952   10.73857
      59      444        2     0.11040   12.59409    6.03662   10.73831
      60      444        2     0.11040   14.99277   16.06953   10.73844
      61      444        2     0.11040    9.64045    8.03245    6.04514
      62      444        2     0.11040   12.03937   18.06426    6.04591
      63      444        2     0.11040   18.13296    8.03255    6.04501
      64      444        2     0.11040   20.53173   18.06429    6.04527
      65      444        2     0.11040    6.14893    5.84175    4.85201
      66      444        2     0.11040    8.54729   15.87508    4.85175
      67      444        2     0.11040   14.64121    5.84145    4.85111
      68      444        2     0.11040   17.03993   15.87483    4.85188
      69      444        2     0.11040   11.75355   12.38371   11.57088
      70      444        2     0.11040   14.15230   22.41634   11.57127
      71      444        2     0.11040   20.24617   12.38369   11.57088
      72      444        2     0.11040   22.64484   22.41657   11.57075
      73      444        2     0.11040    8.46793   10.36422    9.83036
      74      444        2     0.11040   10.86666   20.39697    9.83075
      75      444        2     0.11040   16.96057   10.36425    9.83023
      76      444        2     0.11040   19.35907   20.39690    9.83062
      77      444        2     0.11040   10.79343    8.83590    9.49523
      78      444        2     0.11040   13.19217   18.86869    9.49548
      79      444        2     0.11040   19.28604    8.83588    9.49523
      80      444        2     0.11040   21.68453   18.86857    9.49561
      81      444        2     0.11040    8.13046   12.36811   11.68144
      82      444        2     0.11040   10.52933   22.40066   11.68221
      83      444        2     0.11040   16.62299   12.36812   11.68105
      84      444        2     0.11040   19.02156   22.40068   11.68092
      85      444        2     0.11040    8.60604   13.26743   10.25140
      86      444        2     0.11040   11.00454   23.30000   10.25204
      87      444        2     0.11040   17.09880   13.26752   10.25114
      88      444        2     0.11040   19.49727   23.30025   10.25153
      89      444        2     0.11040    7.67710    4.31218    9.38146
      90      444        2     0.11040   10.07622   14.34502    9.38108
      91      444        2     0.11040   16.16969    4.31269    9.38121
      92      444        2     0.11040   18.56681   14.34240    9.37350
      93      444        2     0.11040    8.49185    5.85631    9.59513
      94      444        2     0.11040   10.89028   15.88953    9.59500
      95      444        2     0.11040   16.98440    5.85679    9.59513
      96      444        2     0.11040   19.38316   15.88963    9.59525
      97      444        2     0.11040    6.73686    5.78098    9.70864
      98      444        2     0.11040    9.13531   15.81345    9.70825
      99      444        2     0.11040   15.22940    5.78140    9.70851
     100      444        2     0.11040   17.62790   15.81333    9.70735
     101      444        2     0.11040    5.41215    6.78476    0.47471
     102      444        2     0.11040    7.81136   16.81741    0.47535
     103      444        2     0.11040   13.90450    6.78460    0.47432
     104      444        2     0.11040   16.30359   16.81743    0.47471
     105      444        2     0.11040    4.84140    7.70908    1.86558
     106      444        2     0.11040    7.24064   17.74178    1.86623
     107      444        2     0.11040   13.33372    7.70882    1.86533
     108      444        2     0.11040   15.73295   17.74167    1.86571
     109      444        2     0.11040    6.50018    7.09541    1.82514
     110      444        2     0.11040    8.89944   17.12824    1.82565
     111      444        2     0.11040   14.99246    7.09507    1.82488
     112      444        2     0.11040   17.39170   17.12804    1.82501
     113      444        2     0.11040    5.97726   13.61197   10.66897
     114      444        2     0.11040    8.37593   23.64459   10.66910
     115      444        2     0.11040   14.46994   13.61207   10.66897
     116      444        2     0.11040   16.86847   23.64458   10.66897
     117      444        2     0.11040   10.42867    8.77923    2.10801
     118      444        2     0.11040   12.82767   18.81207    2.10814
     119      444        2     0.11040   18.92121    8.77913    2.10801
     120      444        2     0.11040   21.31992   18.81203    2.10814
     121      444        2     0.11040    4.88915    6.78324    6.80067
     122      444        2     0.11040    7.28751   16.81658    6.80041
     123      444        2     0.11040   13.38164    6.78332    6.80054
     124      444        2     0.11040   15.78015   16.81639    6.80054
     125      444        2     0.11040    8.38067    8.97401    7.99380
     126      444        2     0.11040   10.77957   19.00584    7.99457
     127      444        2     0.11040   16.87317    8.97414    7.99367
     128      444        2     0.11040   19.27206   19.00607    7.99431
     129      444        3     0.15633    3.32070    3.19877    1.80844
     130      444        3     0.15633    5.71908   13.23146    1.80844
     131      444        3     0.15633   11.81325    3.19872    1.80857
     132      444        3     0.15633   14.21172   13.23122    1.80883
     133      444        3    -0.05666    5.02983    4.26698    2.73334
     134      444        3    -0.05666    7.42821   14.29949    2.73347
     135      444        3    -0.05666   13.52241    4.26678    2.73347
     136      444        3    -0.05666   15.92099   14.29929    2.73347
     137      444        3    -0.05666    3.89216    5.02164    2.87163
     138      444        3    -0.05666    6.29054   15.05414    2.87163
     139      444        3    -0.05666   12.38480    5.02148    2.87176
     140      444        3    -0.05666   14.78339   15.05403    2.87176
     141      444        4    -0.03639    5.53922    2.00181    1.67632
     142      444        4    -0.03639    7.93749   12.03435    1.67619
     143      444        4    -0.03639   14.03165    2.00159    1.67632
     144      444        4    -0.03639   16.43005   12.03399    1.67657
     145      444        3    -0.05538    4.85189    0.97009    0.81151
     146      444        3    -0.05538    7.25026   11.00284    0.81164
     147      444        3    -0.05538   13.34439    0.97012    0.81177
     148      444        3    -0.05538   15.74279   11.00262    0.81190
     149      444        3    -0.05538    6.76094    9.81771    1.39845
     150      444        3    -0.05538    9.16001   19.85054    1.39883
     151      444        3    -0.05538   15.25337    9.81746    1.39858
     152      444        3    -0.05538   17.65233   19.85043    1.39858
     153      444        3    -0.05538    8.35844    5.98446   12.26786
     154      444        3    -0.05538   10.75688   16.01720   12.26760
     155      444        3    -0.05538   16.85088    5.98454   12.26773
     156      444        3    -0.05538   19.24951   16.01709   12.26786
     157      444        4    -0.34322    6.86674    9.57458    2.88447
     158      444        4    -0.34322    9.26599   19.60741    2.88486
     159      444        4    -0.34322   15.35905    9.57421    2.88460
     160      444        4    -0.34322   17.75806   19.60690    2.88396
     161      444        4    -0.34322    8.82244    7.27445   11.64035
     162      444        4    -0.34322   11.22103   17.30719   11.64022
     163      444        4    -0.34322   17.31490    7.27457   11.64035
     164      444        4    -0.34322   19.71374   17.30712   11.64060
     165      444        3     0.66938    9.08107    2.83712    0.07923
     166      444        3     0.66938   11.47924   12.86947    0.07833
     167      444        3     0.66938   17.57358    2.83702    0.07923
     168      444        3     0.66938   19.97149   12.86945    0.07833
     169      444        3    -0.05538    8.77696    1.37042    0.04147
     170      444        3    -0.05538   11.17538   11.40320    0.04160
     171      444        3    -0.05538   17.26952    1.37037    0.04160
     172      444        3    -0.05538   19.66779   11.40314    0.04160
     173      444        3    -0.05979    8.52267    0.66716    1.22947
     174      444        3    -0.05979   10.92098   10.69989    1.22960
     175      444        3    -0.05979   17.01512    0.66713    1.22960
     176      444        3    -0.05979   19.41345   10.69981    1.22960
     177      444        3    -0.05979    3.89708    5.47671   11.65190
     178      444        3    -0.05979    6.29545   15.50956   11.65190
     179      444        3    -0.05979   12.38956    5.47662   11.65139
     180      444        3    -0.05979   14.78823   15.50962   11.65190
     181      444        3     0.66938    8.75229    6.35496    4.15593
     182      444        3     0.66938   11.15092   16.38748    4.15618
     183      444        3     0.66938   17.24484    6.35496    4.15593
     184      444        3     0.66938   19.64319   16.38722    4.15516
     185      444        3    -0.05538    7.97411    6.88333    5.32569
     186      444        3    -0.05538   10.37274   16.91591    5.32595
     187      444        3    -0.05538   16.46662    6.88334    5.32556
     188      444        3    -0.05538   18.86527   16.91586    5.32582
     189      444        3    -0.05979    8.59833    7.76666    6.22028
     190      444        3    -0.05979   10.99716   17.79878    6.22092
     191      444        3    -0.05979   17.09084    7.76673    6.22015
     192      444        3    -0.05979   19.48963   17.79895    6.22067
     193      444        3    -0.05979    6.63325    6.52969    5.54128
     194      444        3    -0.05979    9.03174   16.56264    5.54128
     195      444        3    -0.05979   15.12579    6.52973    5.54128
     196      444        3    -0.05979   17.52431   16.56258    5.54128
     197      444        3     0.15633   11.20964   11.61696   11.03852
     198      444        3     0.15633   13.60839   21.64963   11.03890
     199      444        3     0.15633   19.70223   11.61689   11.03839
     200      444        3     0.15633   22.10089   21.64976   11.03852
     201      444        3    -0.05666    9.50032   10.54917   10.11349
     202      444        3    -0.05666   11.89906   20.58190   10.11388
     203      444        3    -0.05666   17.99295   10.54916   10.11337
     204      444        3    -0.05666   20.39149   20.58189   10.11375
     205      444        3    -0.05666   10.63786    9.79436    9.97507
     206      444        3    -0.05666   13.03660   19.82710    9.97533
     207      444        3    -0.05666   19.13050    9.79436    9.97507
     208      444        3    -0.05666   21.52902   19.82708    9.97533
     209      444        4    -0.03639    8.99133   12.81412   11.17142
     210      444        4    -0.03639   11.39008   22.84675   11.17206
     211      444        4    -0.03639   17.48399   12.81417   11.17129
     212      444        4    -0.03639   19.88259   22.84694   11.17154
     213      444        3    -0.05538    9.67869   13.84550   12.03609
     214      444        3    -0.05538   12.07753   23.87817   12.03660
     215      444        3    -0.05538   18.17130   13.84546   12.03609
     216      444        3    -0.05538   20.56998   23.87829   12.03622
     217      444        3    -0.05538    7.76945    4.99788   11.44967
     218      444        3    -0.05538   10.16791   15.03071   11.44928
     219      444        3    -0.05538   16.26191    4.99807   11.44941
     220      444        3    -0.05538   18.66059   15.03070   11.44941
     221      444        3    -0.05538    6.17176    8.83082    0.57910
     222      444        3    -0.05538    8.57106   18.86391    0.58052
     223      444        3    -0.05538   14.66449    8.83100    0.58000
     224      444        3    -0.05538   17.06342   18.86387    0.58013
     225      444        4    -0.34322    7.66310    5.24105    9.96365
     226      444        4    -0.34322   10.06173   15.27386    9.96326
     227      444        4    -0.34322   16.15548    5.24121    9.96288
     228      444        4    -0.34322   18.55451   15.27401    9.96339
     229      444        4    -0.34322    5.70780    7.54132    1.20764
     230      444        4    -0.34322    8.10699   17.57403    1.20815
     231      444        4    -0.34322   14.20015    7.54108    1.20738
     232      444        4    -0.34322   16.59927   17.57396    1.20764
     233      444        3     0.66938    5.44960   11.97859   12.76671
     234      444        3     0.66938    7.84792   22.01099   12.76594
     235      444        3     0.66938   13.94231   11.97867   12.76671
     236      444        3     0.66938   16.34116   22.01135   12.76696
     237      444        3    -0.05538    5.75359   13.44537   12.80484
     238      444        3    -0.05538    8.15225   23.47805   12.80484
     239      444        3    -0.05538   14.24630   13.44545   12.80484
     240      444        3    -0.05538   16.64506   23.47809   12.80484
     241      444        3    -0.05979    6.00786   14.14873   11.61685
     242      444        3    -0.05979    8.40649   24.18131   11.61672
     243      444        3    -0.05979   14.50057   14.14883   11.61685
     244      444        3    -0.05979   16.89918   24.18142   11.61685
     245      444        3    -0.05979   10.63332    9.33906    1.19454
     246      444        3    -0.05979   13.03220   19.37181    1.19454
     247      444        3    -0.05979   19.12584    9.33898    1.19454
     248      444        3    -0.05979   21.52455   19.37175    1.19454
     249      444        3     0.66938    5.77702    8.46030    8.68911
     250      444        3     0.66938    8.17581   18.49326    8.69001
     251      444        3     0.66938   14.26976    8.46069    8.68975
     252      444        3     0.66938   16.66844   18.49316    8.69001
     253      444        3    -0.05538    6.55548    7.93235    7.52012
     254      444        3    -0.05538    8.95410   17.96498    7.52037
     255      444        3    -0.05538   15.04798    7.93245    7.51999
     256      444        3    -0.05538   17.44663   17.96501    7.52024
     257      444        3    -0.05979    5.93124    7.04903    6.62540
     258      444        3    -0.05979    8.32972   17.08206    6.62540
     259      444        3    -0.05979   14.42376    7.04913    6.62540
     260      444        3    -0.05979   16.82236   17.08185    6.62552
     261      444        3    -0.05979    7.89631    8.28604    7.30440
     262      444        3    -0.05979   10.29508   18.31821    7.30491
     263      444        3    -0.05979   16.38881    8.28613    7.30427
     264      444        3    -0.05979   18.78766   18.31825    7.30491
     265      444        5    -0.41047    2.83111    4.34907    2.28495
     266      444        5    -0.41047    5.22948   14.38167    2.28482
     267      444        5    -0.41047   11.32369    4.34897    2.28495
     268      444        5    -0.41047   13.72225   14.38155    2.28521
     269      444        5     0.07522    4.64598    3.11426    2.06333
     270      444        5     0.07522    7.04434   13.14685    2.06333
     271      444        5     0.07522   13.13852    3.11411    2.06345
     272      444        5     0.07522   15.53700   13.14660    2.06358
     273      444        5    -0.41047   11.69903   10.46669   10.56188
     274      444        5    -0.41047   14.09778   20.49939   10.56214
     275      444        5    -0.41047   20.19148   10.46641   10.56124
     276      444        5    -0.41047   22.59021   20.49941   10.56188
     277      444        5     0.07522    9.88436   11.70171   10.78363
     278      444        5     0.07522   12.28309   21.73438   10.78402
     279      444        5     0.07522   18.37699   11.70170   10.78351
     280      444        5     0.07522   20.77560   21.73450   10.78376
     281      444        6    -0.61288    8.59674    3.50851    1.05381
     282      444        6    -0.61288   10.99513   13.54129    1.05407
     283      444        6    -0.61288   17.08927    3.50844    1.05394
     284      444        6    -0.61288   19.48738   13.54125    1.05407
     285      444        6    -0.61288    4.97092    8.06751   11.99333
     286      444        6    -0.61288    7.36920   18.10039   11.99359
     287      444        6    -0.61288   13.46355    8.06745   11.99294
     288      444        6    -0.61288   15.86224   18.10033   11.99359
     289      444        6    -0.61288    8.14260    5.49598    3.37857
     290      444        6    -0.61288   10.54115   15.52876    3.37870
     291      444        6    -0.61288   16.63518    5.49594    3.37857
     292      444        6    -0.61288   19.03374   15.52870    3.37870
     293      444        6    -0.60274    9.92479    6.74042    3.94714
     294      444        6    -0.60274   12.32353   16.77277    3.94753
     295      444        6    -0.60274   18.41736    6.74046    3.94714
     296      444        6    -0.60274   20.81602   16.77292    3.94740
     297      444        6    -0.61288    5.93368   11.30744   11.79174
     298      444        6    -0.61288    8.33227   21.34016   11.79199
     299      444        6    -0.61288   14.42637   11.30752   11.79174
     300      444        6    -0.61288   16.82517   21.34018   11.79199
     301      444        6    -0.61288    9.55995    6.74790    0.85260
     302      444        6    -0.61288   11.95894   16.78065    0.85299
     303      444        6    -0.61288   18.05246    6.74784    0.85260
     304      444        6    -0.61288   20.45105   16.78068    0.85286
     305      444        6    -0.61288    6.38692    9.31979    9.46685
     306      444        6    -0.61288    8.78550   19.35243    9.46698
     307      444        6    -0.61288   14.87948    9.31980    9.46672
     308      444        6    -0.61288   17.27815   19.35249    9.46698
     309      444        6    -0.60274    4.60487    8.07484    8.89905
     310      444        6    -0.60274    7.00343   18.10758    8.89918
     311      444        6    -0.60274   13.09737    8.07502    8.89892
     312      444        6    -0.60274   15.49609   18.10753    8.89930
     313      444        1     0.97778   13.12090    9.87200   14.81180
     314      444        1     0.97778   15.51951   19.90468   14.81206
     315      444        1     0.97778   21.61350    9.87196   14.81180
     316      444        1     0.97778   24.01192   19.90469   14.81193
     317      444        1     0.97778    8.68370   14.50454   23.71509
     318      444        1     0.97778   11.08219   24.53722   23.71496
     319      444        1     0.97778   17.17634   14.50459   23.71496
     320      444        1     0.97778   19.57506   24.53727   23.71521
     321      444        2     0.11040    6.41411    7.21233   14.11675
     322      444        2     0.11040    8.81245   17.24504   14.11649
     323      444        2     0.11040   14.90658    7.21229   14.11675
     324      444        2     0.11040   17.30499   17.24478   14.11713
     325      444        2     0.11040    9.69938    9.23261   15.85662
     326      444        2     0.11040   12.09782   19.26512   15.85701
     327      444        2     0.11040   18.19201    9.23237   15.85688
     328      444        2     0.11040   20.59063   19.26489   15.85688
     329      444        2     0.11040    7.37374   10.76067   16.19176
     330      444        2     0.11040    9.77214   20.79316   16.19189
     331      444        2     0.11040   15.86641   10.76049   16.19189
     332      444        2     0.11040   18.26509   20.79312   16.19189
     333      444        2     0.11040   10.03740    7.22821   14.00671
     334      444        2     0.11040   12.43576   17.26072   14.00671
     335      444        2     0.11040   18.52990    7.22796   14.00684
     336      444        2     0.11040   20.92842   17.26029   14.00722
     337      444        2     0.11040    9.56156    6.32942   15.43700
     338      444        2     0.11040   11.95973   16.36184   15.43687
     339      444        2     0.11040   18.05391    6.32910   15.43700
     340      444        2     0.11040   20.45209   16.36138   15.43726
     341      444        2     0.11040   10.49064   15.28402   16.30707
     342      444        2     0.11040   12.89029   25.31682   16.30732
     343      444        2     0.11040   18.98282   15.28357   16.30719
     344      444        2     0.11040   21.38252   25.31649   16.30719
     345      444        2     0.11040    9.67461   13.74061   16.09327
     346      444        2     0.11040   12.07343   23.77339   16.09289
     347      444        2     0.11040   18.16688   13.74010   16.09315
     348      444        2     0.11040   20.56588   23.77335   16.09327
     349      444        2     0.11040   11.42966   13.81439   15.98015
     350      444        2     0.11040   13.82873   23.84686   15.98028
     351      444        2     0.11040   19.92197   13.81403   15.98028
     352      444        2     0.11040   22.32097   23.84654   15.98002
     353      444        2     0.11040   12.75557   12.81144   25.21356
     354      444        2     0.11040   15.15415   22.84411   25.21356
     355      444        2     0.11040   21.24804   12.81154   25.21382
     356      444        2     0.11040   23.64686   22.84398   25.21408
     357      444        2     0.11040   13.32574   11.88728   23.82230
     358      444        2     0.11040   15.72443   21.92003   23.82230
     359      444        2     0.11040   21.81827   11.88751   23.82243
     360      444        2     0.11040   24.21715   21.91999   23.82269
     361      444        2     0.11040   11.66696   12.50088   23.86352
     362      444        2     0.11040   14.06565   22.53374   23.86339
     363      444        2     0.11040   20.15949   12.50111   23.86365