Created on Tue Feb 06 14:56:00 2018 

        2064 atoms
        2352 bonds
        3744 angles
        4800 dihedrals
        3024 impropers

           5 atom types
           8 bond types
          17 angle types
           3 dihedral types
           1 improper types
           0.000000  26.038000 xlo xhi
           0.000000  36.473328 ylo yhi
           0.000000  42.063647 zlo zhi
          13.388502   3.095347   2.186130 xy xz yz

Masses

    1   112.411000000 # Cd3+2
    2     1.007940000 # H_
    3    12.010700000 # C_R
    4    14.006700000 # N_R
    5    15.999400000 # O_R

Bond Coeffs

    1      147.192711        2.045725  # Cd3+2 O_R
    2      152.700732        2.089900  # Cd3+2 N_R
    3      357.440381        1.081418  # H_ C_R
    4      462.655054        1.379256  # C_R C_R
    5      663.718927        1.345073  # C_R N_R
    6      391.669513        1.458000  # C_R C_R
    7      646.680887        1.311940  # C_R O_R
    8      929.109299        1.322497  # N_R N_R

Angle Coeffs

    1                      fourier       30.023701        0.343737        0.374972        0.281246 # O_R Cd3+2 O_R
    2                      fourier       31.469575        0.343737        0.374972        0.281246 # N_R Cd3+2 O_R
    3                      fourier       33.010492        0.343737        0.374972        0.281246 # N_R Cd3+2 N_R
    4              cosine/periodic       76.817955              -1               3 # C_R C_R H_
    5              cosine/periodic      165.695700              -1               3 # C_R C_R N_R
    6              cosine/periodic      109.704024              -1               3 # H_ C_R N_R
    7              cosine/periodic      143.630586              -1               3 # C_R C_R N_R
    8              cosine/periodic      101.626578              -1               3 # C_R C_R C_R
    9              cosine/periodic      234.844275              -1               3 # N_R C_R N_R
   10              cosine/periodic      117.010657              -1               3 # C_R C_R C_R
   11              cosine/periodic      137.761490              -1               3 # C_R C_R O_R
   12              cosine/periodic      217.450257              -1               3 # O_R C_R O_R
   13              cosine/periodic      132.654363              -1               3 # C_R N_R C_R
   14              cosine/periodic       33.294741              -1               3 # C_R N_R Cd3+2
   15              cosine/periodic      184.094783              -1               3 # C_R N_R N_R
   16              cosine/periodic       45.744975              -1               3 # Cd3+2 N_R N_R
   17              cosine/periodic       45.673393              -1               3 # Cd3+2 O_R C_R

Dihedral Coeffs

    1        1.497136              -1               2 # H_ C_R C_R N_R
    2        2.245703              -1               2 # C_R C_R N_R C_R
    3        0.555556              -1               2 # C_R C_R C_R N_R

Improper Coeffs

    1        2.000000        1.000000       -1.000000        0.000000               0 # C_R C_R H_ N_R

Pair Coeffs

    1        0.228000        2.537280 # Cd3+2 Cd3+2
    2        0.044000        2.571134 # H_ H_
    3        0.105000        3.430851 # C_R C_R
    4        0.069000        3.260689 # N_R N_R
    5        0.060000        3.118146 # O_R O_R

Atoms

       1      444        1     0.94595    1.49696    0.97021    3.81118
       2      444        1     0.85321   10.03029    6.89305    1.85038
       3      444        1     0.94595   16.83342   11.62467    6.68812
       4      444        1     0.85321    8.31035    5.69046    8.66427
       5      444        1     0.94595   17.53287   12.28036   17.22023
       6      444        1     0.85321    8.99953    6.35753   19.18081
       7      444        1     0.94595    2.19508    1.62477   14.32435
       8      444        1     0.85321   10.71953    7.55999   12.36671
       9      444        2     0.10766   12.08667    1.84353    2.04598
      10      444        2     0.10766   12.04800    5.90738    4.73742
      11      444        2     0.10766   13.51436    3.91175    5.35744
      12      444        2     0.10766    4.43930    3.00333    6.61114
      13      444        2     0.10766   12.57081    2.26585   19.21972
      14      444        2     0.10766    1.75048    0.98547    9.32909
      15      444        2     0.10766    5.02165    3.32101   10.86357
      16      444        2     0.10766   10.56639    2.18874   15.57049
      17      444        2     0.10766    9.29337    4.28417   16.23068
      18      444        2     0.10766   12.36707    2.04925    8.46825
      19      444        2     0.10766    8.55548    3.46200    5.77870
      20      444        2     0.10766    9.94251    1.41377    5.15111
      21      444        2     0.10766   13.91050    9.56644    3.90330
      22      444        2     0.10766   13.36823    2.81830   12.32360
      23      444        2     0.10766   16.73811   11.38511    1.18619
      24      444        2     0.10766   14.95090   10.23493   20.68227
      25      444        2     0.10766   14.12817    4.67766   15.96946
      26      444        2     0.10766   12.57589    6.57888   15.31958
      27      444        2     0.10766    6.94300   11.40697   18.98543
      28      444        2     0.10766    6.98161    7.34311   16.29398
      29      444        2     0.10766    5.51522    9.33873   15.67397
      30      444        2     0.10766   14.59049   10.24729   14.42026
      31      444        2     0.10766    6.45898   10.98476    1.81168
      32      444        2     0.10766   17.27936   12.26507   11.70232
      33      444        2     0.10766   14.00821    9.92954   10.16784
      34      444        2     0.10766    8.46337   11.06182    5.45986
      35      444        2     0.10766    9.73631    8.96634    4.79946
      36      444        2     0.10766    6.66276   11.20113   12.56294
      37      444        2     0.10766   10.47421    9.78830   15.25270
      38      444        2     0.10766    9.08718   11.83653   15.88029
      39      444        2     0.10766    5.11943    3.68394   17.12790
      40      444        2     0.10766    5.66169   10.43216    8.70781
      41      444        2     0.10766    2.29175    1.86543   19.84521
      42      444        2     0.10766    4.07888    3.01571    0.34913
      43      444        2     0.10766    4.90164    8.57277    5.06026
      44      444        2     0.10766    6.45403    6.67162    5.71119
      45      444        3     0.09382   12.05335    2.73274    2.67609
      46      444        3     0.09382   12.03421    4.98097    4.16241
      47      444        3     0.09382   12.83805    3.89135    4.50270
      48      444        3     0.12972   11.27089    3.83977    2.31855
      49      444        3     0.28767   10.52935    3.84059    1.07325
      50      444        3     0.02089    4.14078    2.74978    7.62698
      51      444        3     0.65520    2.25503    1.41205    6.65447
      52      444        3    -0.17863    3.01893    1.93168    7.84108
      53      444        3     0.09382   11.84393    2.71486   18.54039
      54      444        3     0.12972   11.15404    3.88194   18.89730
      55      444        3     0.28767   11.38599    4.49826   20.18908
      56      444        3     0.65520    6.09973    4.08325    8.51558
      57      444        3    -0.17863    3.33603    2.13823   10.24018
      58      444        3     0.02089    2.62220    1.61554    9.15074
      59      444        3     0.02089    4.46520    2.93081   10.01472
      60      444        3    -0.17863    4.87995    3.23347    8.71201
      61      444        3     0.09382   10.73295    2.68055   16.52891
      62      444        3     0.09382   10.04744    3.84420   16.88330
      63      444        3     0.65520    2.89597    1.88997   11.65436
      64      444        3     0.09382   11.54118    2.38122    7.83856
      65      444        3     0.09382    9.43138    3.16074    6.35371
      66      444        3     0.09382   10.18840    2.03938    6.00942
      67      444        3     0.12972   10.76022    3.48769    8.20115
      68      444        3     0.28767   11.00796    4.18085    9.44960
      69      444        3     0.02089   14.25107    9.75946    2.88746
      70      444        3     0.65520   16.16585   11.05362    3.86165
      71      444        3    -0.17863   15.41081   10.52315    2.67378
      72      444        3     0.09382   13.19042    3.65245   13.00461
      73      444        3     0.12972   12.31837    4.69238   12.65380
      74      444        3     0.28767   11.65382    4.68098   11.36518
      75      444        3     0.65520   12.31185    8.39817    1.99907
      76      444        3    -0.17863   15.10243   10.30474    0.27447
      77      444        3     0.02089   15.84325   10.78806    1.36286
      78      444        3     0.02089   13.96448    9.52473    0.49972
      79      444        3    -0.17863   13.53656    9.24070    1.80243
      80      444        3     0.09382   13.60408    4.68614   15.01525
      81      444        3     0.09382   12.73455    5.72131   14.66549
      82      444        3     0.65520   17.03668   11.72444   19.89211
      83      444        3     0.09382    6.97624   10.51772   18.35447
      84      444        3     0.09382    6.99541    8.26952   16.86899
      85      444        3     0.09382    6.19156    9.35913   16.52870
      86      444        3     0.12972    7.75877    9.41073   18.71285
      87      444        3     0.28767    8.50035    9.40994   19.95815
      88      444        3     0.02089   14.88896   10.50076   13.40358
      89      444        3     0.65520   16.77480   11.83853   14.37693
      90      444        3    -0.17863   16.01087   11.31889   13.19011
      91      444        3     0.09382    7.18584   10.53572    2.49101
      92      444        3     0.12972    7.87571    9.36862    2.13389
      93      444        3     0.28767    7.64375    8.75229    0.84232
      94      444        3     0.65520   12.93008    9.16732   12.51562
      95      444        3    -0.17863   15.69384   11.11231   10.79122
      96      444        3     0.02089   16.40765   11.63501   11.88067
      97      444        3     0.02089   14.56464   10.31974   11.01668
      98      444        3    -0.17863   14.14988   10.01713   12.31939
      99      444        3     0.09382    8.29685   10.57004    4.50228
     100      444        3     0.09382    8.98233    9.40638    4.14790
     101      444        3     0.65520   16.13390   11.36056    9.37704
     102      444        3     0.09382    7.48863   10.86916   13.19284
     103      444        3     0.09382    9.59823   10.08949   14.67601
     104      444        3     0.09382    8.84134   11.21095   15.02198
     105      444        3     0.12972    8.26960    9.76268   12.83025
     106      444        3     0.28767    8.02187    9.06953   11.58159
     107      444        3     0.02089    4.77861    3.49098   18.14205
     108      444        3     0.65520    2.86404    2.19677   17.16954
     109      444        3    -0.17863    3.61895    2.72732   18.35658
     110      444        3     0.09382    5.83950    9.59802    8.02659
     111      444        3     0.12972    6.71154    8.55807    8.37740
     112      444        3     0.28767    7.37607    8.56945    9.66602
     113      444        3     0.65520    6.71804    4.85227   19.03212
     114      444        3    -0.17863    3.92729    2.94603   20.75673
     115      444        3     0.02089    3.18643    2.46249   19.66707
     116      444        3     0.02089    5.06530    3.72597   20.53169
     117      444        3    -0.17863    5.49320    4.00995   19.22898
     118      444        3     0.09382    5.42585    8.56435    6.01594
     119      444        3     0.09382    6.29535    7.52916    6.36507
     120      444        3     0.65520    1.99313    1.52598    1.13782
     121      444        4    -0.25877   12.83152    2.76349    3.76217
     122      444        4    -0.34376   11.24152    4.95799    3.07065
     123      444        4    -0.24401    9.72578    4.87265    0.73044
     124      444        4    -0.34376   10.62844    2.89191    0.12219
     125      444        4    -0.24401   10.82543    5.68290   20.51654
     126      444        4    -0.25877   11.63567    2.12160   17.35967
     127      444        4    -0.34376   10.26544    4.46026   18.05834
     128      444        4    -0.25877   11.25237    1.66323    6.74890
     129      444        4    -0.34376    9.71730    3.89438    7.44358
     130      444        4    -0.24401   10.30494    5.28211    9.79725
     131      444        4    -0.34376   11.87087    3.76734   10.39771
     132      444        4    -0.24401   10.72387    5.60626   11.04276
     133      444        4    -0.25877   13.82480    3.64952   14.18155
     134      444        4    -0.34376   12.07478    5.72248   13.49486
     135      444        4    -0.25877    6.19811   10.48700   17.26923
     136      444        4    -0.34376    7.78769    8.29219   17.95445
     137      444        4    -0.24401    9.30393    8.37789   20.29992
     138      444        4    -0.34376    8.40123   10.35860   20.90921
     139      444        4    -0.24401    8.20437    7.56769    0.51486
     140      444        4    -0.25877    7.39408   11.12895    3.67089
     141      444        4    -0.34376    8.76432    8.79031    2.97306
     142      444        4    -0.25877    7.77739   11.58712   14.28229
     143      444        4    -0.34376    9.31248    9.35597   13.58782
     144      444        4    -0.24401    8.72494    7.96831   11.23394
     145      444        4    -0.34376    7.15900    9.48308   10.63369
     146      444        4    -0.24401    8.30603    7.64418    9.98843
     147      444        4    -0.25877    5.20514    9.60096    6.84985
     148      444        4    -0.34376    6.95511    7.52797    7.53570
     149      444        5    -0.59775    2.39302    2.06181    5.55766
     150      444        5    -0.59775    1.54986    0.36004    6.77435
     151      444        5    -0.63260    1.83942    1.20898   11.86973
     152      444        5    -0.63260    6.51991    4.37832    7.35567
     153      444        5    -0.59775    6.68641    4.49267    9.59051
     154      444        5    -0.59775    3.58757    2.39462   12.60437
     155      444        5    -0.59775   15.51440   11.12704    4.96372
     156      444        5    -0.59775   17.39190   11.36835    3.73841
     157      444        5    -0.63260   18.04274   12.47762   19.67737
     158      444        5    -0.63260   11.88563    8.11275    3.15940
     159      444        5    -0.59775   11.72414    7.98975    0.92456
     160      444        5    -0.59775   16.32247   11.25261   18.94021
     161      444        5    -0.59775   16.63680   11.18878   15.47374
     162      444        5    -0.59775   17.47984   12.89046   14.25537
     163      444        5    -0.63260   17.19043   12.04156    9.16146
     164      444        5    -0.63260   12.50992    8.87228   13.67573
     165      444        5    -0.59775   12.34342    8.75793   11.44089
     166      444        5    -0.59775   15.44223   10.85580    8.42577
     167      444        5    -0.59775    3.51555    2.12326   16.06768
     168      444        5    -0.59775    1.63798    1.88211   17.29279
     169      444        5    -0.63260    0.98709    0.77299    1.35403
     170      444        5    -0.63260    7.14420    5.13774   17.87200
     171      444        5    -0.59775    7.30568    5.26084   20.10663
     172      444        5    -0.59775    2.70733    1.99803    2.09098
     173      444        1     0.94595    3.04463    2.06328   24.84300
     174      444        1     0.85321   11.57797    7.98611   22.88220
     175      444        1     0.94595   18.38109   12.71774   27.71994
     176      444        1     0.85321    9.85802    6.78352   29.69609
     177      444        1     0.94595   19.08054   13.37343   38.25205
     178      444        1     0.85321   10.54720    7.45060   40.21264
     179      444        1     0.94595    3.74276    2.71784   35.35618
     180      444        1     0.85321   12.26720    8.65305   33.39854
     181      444        2     0.10766   13.63434    2.93660   23.07780
     182      444        2     0.10766   13.59567    7.00045   25.76924
     183      444        2     0.10766   15.06203    5.00482   26.38926
     184      444        2     0.10766    5.98698    4.09639   27.64297
     185      444        2     0.10766   14.11848    3.35891   40.25155
     186      444        2     0.10766    3.29816    2.07854   30.36091
     187      444        2     0.10766    6.56933    4.41408   31.89539
     188      444        2     0.10766   12.11406    3.28180   36.60231
     189      444        2     0.10766   10.84105    5.37723   37.26250
     190      444        2     0.10766   13.91474    3.14232   29.50008
     191      444        2     0.10766   10.10316    4.55506   26.81053
     192      444        2     0.10766   11.49018    2.50683   26.18294
     193      444        2     0.10766   15.45817   10.65951   24.93512
     194      444        2     0.10766   14.91590    3.91137   33.35542
     195      444        2     0.10766   18.28578   12.47817   22.21802
     196      444        2     0.10766   16.49857   11.32800   41.71410
     197      444        2     0.10766   15.67585    5.77072   37.00129
     198      444        2     0.10766   14.12356    7.67194   36.35140
     199      444        2     0.10766    8.49067   12.50003   40.01725
     200      444        2     0.10766    8.52928    8.43617   37.32581
     201      444        2     0.10766    7.06289   10.43179   36.70579
     202      444        2     0.10766   16.13816   11.34035   35.45208
     203      444        2     0.10766    8.00666   12.07783   22.84350
     204      444        2     0.10766   18.82703   13.35813   32.73414
     205      444        2     0.10766   15.55588   11.02260   31.19966
     206      444        2     0.10766   10.01104   12.15489   26.49168
     207      444        2     0.10766   11.28399   10.05941   25.83129
     208      444        2     0.10766    8.21043   12.29419   33.59476
     209      444        2     0.10766   12.02188   10.88136   36.28452
     210      444        2     0.10766   10.63485   12.92960   36.91211
     211      444        2     0.10766    6.66710    4.77701   38.15972
     212      444        2     0.10766    7.20937   11.52523   29.73963
     213      444        2     0.10766    3.83942    2.95850   40.87703
     214      444        2     0.10766    5.62655    4.10877   21.38095
     215      444        2     0.10766    6.44931    9.66584   26.09208
     216      444        2     0.10766    8.00171    7.76468   26.74302
     217      444        3     0.09382   13.60102    3.82580   23.70791
     218      444        3     0.09382   13.58188    6.07404   25.19423
     219      444        3     0.09382   14.38572    4.98442   25.53453
     220      444        3     0.12972   12.81857    4.93283   23.35037
     221      444        3     0.28767   12.07702    4.93366   22.10508
     222      444        3     0.02089    5.68846    3.84285   28.65880
     223      444        3     0.65520    3.80271    2.50511   27.68629
     224      444        3    -0.17863    4.56660    3.02474   28.87291
     225      444        3     0.09382   13.39160    3.80792   39.57222
     226      444        3     0.12972   12.70171    4.97501   39.92913
     227      444        3     0.28767   12.93367    5.59132   41.22090
     228      444        3     0.65520    7.64740    5.17632   29.54740
     229      444        3    -0.17863    4.88370    3.23130   31.27201
     230      444        3     0.02089    4.16987    2.70861   30.18256
     231      444        3     0.02089    6.01287    4.02388   31.04655
     232      444        3    -0.17863    6.42762    4.32654   29.74384
     233      444        3     0.09382   12.28062    3.77362   37.56073
     234      444        3     0.09382   11.59511    4.93726   37.91512
     235      444        3     0.65520    4.44364    2.98304   32.68619
     236      444        3     0.09382   13.08885    3.47429   28.87038
     237      444        3     0.09382   10.97905    4.25380   27.38554
     238      444        3     0.09382   11.73607    3.13245   27.04125
     239      444        3     0.12972   12.30790    4.58076   29.23297
     240      444        3     0.28767   12.55564    5.27392   30.48142
     241      444        3     0.02089   15.79874   10.85253   23.91928
     242      444        3     0.65520   17.71352   12.14668   24.89348
     243      444        3    -0.17863   16.95848   11.61621   23.70560
     244      444        3     0.09382   14.73809    4.74552   34.03643
     245      444        3     0.12972   13.86605    5.78545   33.68562
     246      444        3     0.28767   13.20150    5.77405   32.39700
     247      444        3     0.65520   13.85952    9.49124   23.03090
     248      444        3    -0.17863   16.65010   11.39780   21.30629
     249      444        3     0.02089   17.39093   11.88112   22.39469
     250      444        3     0.02089   15.51216   10.61780   21.53154
     251      444        3    -0.17863   15.08423   10.33377   22.83425
     252      444        3     0.09382   15.15176    5.77921   36.04707
     253      444        3     0.09382   14.28223    6.81438   35.69731
     254      444        3     0.65520   18.58436   12.81751   40.92393
     255      444        3     0.09382    8.52391   11.61079   39.38630
     256      444        3     0.09382    8.54308    9.36258   37.90082
     257      444        3     0.09382    7.73924   10.45219   37.56052
     258      444        3     0.12972    9.30644   10.50380   39.74468
     259      444        3     0.28767   10.04802   10.50300   40.98997
     260      444        3     0.02089   16.43664   11.59383   34.43540
     261      444        3     0.65520   18.32247   12.93159   35.40876
     262      444        3    -0.17863   17.55855   12.41195   34.22193
     263      444        3     0.09382    8.73351   11.62878   23.52283
     264      444        3     0.12972    9.42339   10.46169   23.16571
     265      444        3     0.28767    9.19142    9.84536   21.87415
     266      444        3     0.65520   14.47775   10.26039   33.54744
     267      444        3    -0.17863   17.24151   12.20537   31.82304
     268      444        3     0.02089   17.95532   12.72807   32.91249
     269      444        3     0.02089   16.11231   11.41280   32.04850
     270      444        3    -0.17863   15.69755   11.11020   33.35121
     271      444        3     0.09382    9.84452   11.66310   25.53411
     272      444        3     0.09382   10.53000   10.49944   25.17972
     273      444        3     0.65520   17.68158   12.45363   30.40886
     274      444        3     0.09382    9.03631   11.96222   34.22467
     275      444        3     0.09382   11.14591   11.18256   35.70783
     276      444        3     0.09382   10.38901   12.30402   36.05380
     277      444        3     0.12972    9.81727   10.85574   33.86208
     278      444        3     0.28767    9.56955   10.16259   32.61342
     279      444        3     0.02089    6.32629    4.58404   39.17387
     280      444        3     0.65520    4.41172    3.28983   38.20136
     281      444        3    -0.17863    5.16663    3.82039   39.38840
     282      444        3     0.09382    7.38718   10.69108   29.05841
     283      444        3     0.12972    8.25922    9.65114   29.40922
     284      444        3     0.28767    8.92375    9.66251   30.69784
     285      444        3     0.65520    8.26571    5.94533   40.06394
     286      444        3    -0.17863    5.47497    4.03910   41.78855
     287      444        3     0.02089    4.73411    3.55556   40.69889
     288      444        3     0.02089    6.61297    4.81903   41.56351
     289      444        3    -0.17863    7.04088    5.10301   40.26080
     290      444        3     0.09382    6.97352    9.65741   27.04777
     291      444        3     0.09382    7.84302    8.62222   27.39689
     292      444        3     0.65520    3.54080    2.61905   22.16965
     293      444        4    -0.25877   14.37920    3.85656   24.79400
     294      444        4    -0.34376   12.78920    6.05106   24.10247
     295      444        4    -0.24401   11.27345    5.96571   21.76226
     296      444        4    -0.34376   12.17612    3.98498   21.15402
     297      444        4    -0.24401   12.37310    6.77596   41.54837
     298      444        4    -0.25877   13.18334    3.21467   38.39149
     299      444        4    -0.34376   11.81311    5.55332   39.09017
     300      444        4    -0.25877   12.80004    2.75630   27.78073
     301      444        4    -0.34376   11.26497    4.98744   28.47541
     302      444        4    -0.24401   11.85261    6.37517   30.82908
     303      444        4    -0.34376   13.41855    4.86041   31.42954
     304      444        4    -0.24401   12.27154    6.69933   32.07458
     305      444        4    -0.25877   15.37247    4.74259   35.21337
     306      444        4    -0.34376   13.62245    6.81554   34.52668
     307      444        4    -0.25877    7.74578   11.58006   38.30105
     308      444        4    -0.34376    9.33537    9.38526   38.98627
     309      444        4    -0.24401   10.85160    9.47095   41.33174
     310      444        4    -0.34376    9.94891   11.45167   41.94103
     311      444        4    -0.24401    9.75204    8.66076   21.54668
     312      444        4    -0.25877    8.94176   12.22202   24.70272
     313      444        4    -0.34376   10.31199    9.88337   24.00488
     314      444        4    -0.25877    9.32507   12.68019   35.31411
     315      444        4    -0.34376   10.86015   10.44903   34.61964
     316      444        4    -0.24401   10.27261    9.06138   32.26576
     317      444        4    -0.34376    8.70668   10.57614   31.66551
     318      444        4    -0.24401    9.85370    8.73725   31.02026
     319      444        4    -0.25877    6.75281   10.69402   27.88168
     320      444        4    -0.34376    8.50279    8.62103   28.56753
     321      444        5    -0.59775    3.94070    3.15488   26.58948
     322      444        5    -0.59775    3.09754    1.45310   27.80617
     323      444        5    -0.63260    3.38709    2.30204   32.90155
     324      444        5    -0.63260    8.06758    5.47138   28.38749
     325      444        5    -0.59775    8.23408    5.58573   30.62234
     326      444        5    -0.59775    5.13524    3.48769   33.63620
     327      444        5    -0.59775   17.06207   12.22010   25.99554
     328      444        5    -0.59775   18.93957   12.46141   24.77023
     329      444        5    -0.63260   19.59042   13.57068   40.70920
     330      444        5    -0.63260   13.43330    9.20581   24.19122
     331      444        5    -0.59775   13.27181    9.08282   21.95638
     332      444        5    -0.59775   17.87015   12.34568   39.97203
     333      444        5    -0.59775   18.18447   12.28184   36.50557
     334      444        5    -0.59775   19.02751   13.98353   35.28719
     335      444        5    -0.63260   18.73810   13.13463   30.19329
     336      444        5    -0.63260   14.05759    9.96535   34.70756
     337      444        5    -0.59775   13.89109    9.85100   32.47271
     338      444        5    -0.59775   16.98990   11.94887   29.45759
     339      444        5    -0.59775    5.06322    3.21632   37.09951
     340      444        5    -0.59775    3.18565    2.97517   38.32461
     341      444        5    -0.63260    2.53476    1.86606   22.38585
     342      444        5    -0.63260    8.69187    6.23081   38.90383
     343      444        5    -0.59775    8.85336    6.35390   41.13846
     344      444        5    -0.59775    4.25500    3.09109   23.12281
     345      444        1     0.94595    5.95979   13.12799    3.81118
     346      444        1     0.85321   14.49313   19.05082    1.85038
     347      444        1     0.94595   21.29625   23.78245    6.68812
     348      444        1     0.85321   12.77318   17.84823    8.66427
     349      444        1     0.94595   21.99570   24.43814   17.22023
     350      444        1     0.85321   13.46236   18.51531   19.18081
     351      444        1     0.94595    6.65792   13.78255   14.32435
     352      444        1     0.85321   15.18236   19.71776   12.36671
     353      444        2     0.10766   16.54950   14.00131    2.04598
     354      444        2     0.10766   16.51083   18.06516    4.73742
     355      444        2     0.10766   17.97719   16.06953    5.35744
     356      444        2     0.10766    8.90214   15.16110    6.61114
     357      444        2     0.10766   17.03364   14.42362   19.21972
     358      444        2     0.10766    6.21332   13.14325    9.32909
     359      444        2     0.10766    9.48449   15.47879   10.86357
     360      444        2     0.10766   15.02922   14.34651   15.57049
     361      444        2     0.10766   13.75621   16.44194   16.23068
     362      444        2     0.10766   16.82990   14.20703    8.46825
     363      444        2     0.10766   13.01832   15.61977    5.77870
     364      444        2     0.10766   14.40534   13.57154    5.15111
     365      444        2     0.10766   18.37333   21.72422    3.90330
     366      444        2     0.10766   17.83106   14.97608   12.32360
     367      444        2     0.10766   21.20094   23.54289    1.18619
     368      444        2     0.10766   19.41373   22.39271   20.68227
     369      444        2     0.10766   18.59101   16.83543   15.96946
     370      444        2     0.10766   17.03872   18.73665   15.31958