Created on Tue Feb 06 14:43:19 2018 

        4352 atoms
        6016 bonds
       18176 angles
       14464 dihedrals
        3456 impropers

           6 atom types
           8 bond types
          17 angle types
           5 dihedral types
           1 improper types
           0.000000  36.686000 xlo xhi
           0.000000  39.514000 ylo yhi
           0.000000  39.514000 zlo zhi
           0.000690   0.000000   0.000000 xy xz yz

Masses

    1   137.327000000 # Ba6+2
    2     1.007940000 # H_
    3    12.010700000 # C_3
    4    12.010700000 # C_R
    5    14.006700000 # N_3
    6    15.999400000 # O_R

Bond Coeffs

    1       99.935453        2.751925  # Ba6+2 O_R
    2       26.146151        4.554000  # Ba6+2 Ba6+2
    3       99.595059        2.849227  # Ba6+2 N_3
    4      331.069389        1.109401  # H_ C_3
    5      528.634538        1.451071  # C_3 N_3
    6      349.795899        1.514000  # C_3 C_3
    7      369.943935        1.486000  # C_3 C_R
    8      646.680887        1.311940  # C_R O_R

Angle Coeffs

    1              cosine/periodic        2.929909               1               4 # O_R Ba6+2 Ba6+2
    2              cosine/periodic       11.804980               1               4 # O_R Ba6+2 O_R
    3              cosine/periodic        1.337205               1               4 # Ba6+2 Ba6+2 Ba6+2
    4              cosine/periodic       11.952901               1               4 # N_3 Ba6+2 O_R
    5              cosine/periodic       12.139254               1               4 # N_3 Ba6+2 N_3
    6                      fourier       61.342703        0.343737        0.374972        0.281246 # H_ C_3 H_
    7                      fourier      105.465539        0.343737        0.374972        0.281246 # N_3 C_3 H_
    8                      fourier      138.055467        0.343737        0.374972        0.281246 # N_3 C_3 C_3
    9                      fourier       69.847816        0.343737        0.374972        0.281246 # H_ C_3 C_3
   10                      fourier      144.801898        0.343737        0.374972        0.281246 # N_3 C_3 C_R
   11                      fourier       73.868412        0.343737        0.374972        0.281246 # C_R C_3 H_
   12              cosine/periodic      130.962624              -1               3 # O_R C_R C_3
   13              cosine/periodic      217.450257              -1               3 # O_R C_R O_R
   14                      fourier      123.892715        0.317506        0.313225        0.272502 # C_3 N_3 C_3
   15                      fourier       22.293368        0.317506        0.313225        0.272502 # Ba6+2 N_3 C_3
   16              cosine/periodic       27.455638              -1               3 # Ba6+2 O_R C_R
   17              cosine/periodic        9.457399              -1               3 # Ba6+2 O_R Ba6+2

Dihedral Coeffs

    1        0.030516               1               3 # H_ C_3 N_3 Ba6+2
    2        0.066219               1               3 # H_ C_3 C_3 H_
    3        0.416667              -1               2 # H_ C_3 C_R O_R
    4        2.245703              -1               2 # C_3 C_R O_R Ba6+2
    5        1.497136              -1               2 # O_R C_R O_R Ba6+2

Improper Coeffs

    1        2.000000        1.000000       -1.000000        0.000000               0 # O_R C_R O_R C_3

Pair Coeffs

    1        0.364000        3.298998 # Ba6+2 Ba6+2
    2        0.044000        2.571134 # H_ H_
    3        0.105000        3.430851 # C_3 C_3
    4        0.105000        3.430851 # C_R C_R
    5        0.069000        3.260689 # N_3 N_3
    6        0.060000        3.118146 # O_R O_R

Atoms

       1      444        1     1.64123    7.03381   16.11025   12.79147
       2      444        1     1.64123   16.20513   16.11029   12.79127
       3      444        1     1.55391    7.01908   13.54052   17.31010
       4      444        1     1.55391   16.19043   13.54050   17.31010
       5      444        1     1.64123    7.03367    3.64712    6.96573
       6      444        1     1.64123   16.20502    3.64710    6.96434
       7      444        1     1.55391    7.01893    6.21690    2.44710
       8      444        1     1.55391   16.19030    6.21690    2.44710
       9      444        1     1.64123    7.03374    6.96592   16.11025
      10      444        1     1.64123   16.20506    6.96594   16.11025
      11      444        1     1.55391    7.01899    2.44718   13.54046
      12      444        1     1.55391   16.19029    2.44716   13.54046
      13      444        1     1.64123    7.03372   12.79147    3.64714
      14      444        1     1.64123   16.20511   12.79149    3.63529
      15      444        1     1.55391    7.01905   17.31023    6.21674
      16      444        1     1.55391   16.19042   17.31021    6.21674
      17      444        1     1.64123    2.44800    6.23158   16.84462
      18      444        1     1.64123   11.61941    6.23159   16.84284
      19      444        1     1.55391    2.43326    3.66182   12.32580
      20      444        1     1.55391   11.60463    3.66182   12.32580
      21      444        1     1.64123    2.44802   13.52580    2.91277
      22      444        1     1.64123   11.61943   13.52582    2.91277
      23      444        1     1.55391    2.43328   16.09557    7.43140
      24      444        1     1.55391   11.60474   16.09559    7.43140
      25      444        1     1.64123    2.44809   16.84462   13.52564
      26      444        1     1.64123   11.61948   16.84462   13.52564
      27      444        1     1.55391    2.43330   12.32586   16.09544
      28      444        1     1.55391   11.60473   12.32588   16.09544
      29      444        1     1.64123    2.44794    2.91279    6.23136
      30      444        1     1.64123   11.61931    2.91279    6.23156
      31      444        1     1.55391    2.43326    7.43154    3.66176
      32      444        1     1.55391   11.60465    7.43154    3.66176
      33      444        2     0.08453    6.08739   17.46303    0.13771
      34      444        2     0.08453   15.25878   17.46305    0.13771
      35      444        2     0.08453    6.95026   15.99388    0.62235
      36      444        2     0.08453   16.12167   15.99388    0.62235
      37      444        2     0.08453    4.33687   15.67084    0.73891
      38      444        2     0.08453   13.50824   15.67088    0.73891
      39      444        2     0.08453    3.96603   14.48405   19.24273
      40      444        2     0.08453   13.13745   14.48403   19.24273
      41      444        2     0.08453    4.07982   17.10184   18.36551
      42      444        2     0.08453   13.25121   17.10186   18.36551
      43      444        2     0.08453    5.47075   17.12013   17.26604
      44      444        2     0.08453   14.64214   17.12011   17.26604
      45      444        2     0.08453    8.37670   17.72703   19.21507
      46      444        2     0.08453   17.54809   17.72703   19.21507
      47      444        2     0.08453    7.41814   17.47750   17.75008
      48      444        2     0.08453   16.58955   17.47750   17.75008
      49      444        2     0.08453    0.99184   15.48204   16.84205
      50      444        2     0.08453   10.16319   15.48206   16.84205
      51      444        2     0.08453    0.73697   17.18997   17.14591
      52      444        2     0.08453    9.90834   17.18997   17.14591
      53      444        2     0.08453   18.10998   15.32005    0.48266
      54      444        2     0.08453    8.93835   15.32007    0.48266
      55      444        2     0.08453    1.15547   16.12639   19.49937
      56      444        2     0.08453   10.32684   16.12639   19.49937
      57      444        2     0.08453    6.08740    2.29438   19.61949
      58      444        2     0.08453   15.25876    2.29438   19.61949
      59      444        2     0.08453    6.95027    3.76353   19.13347
      60      444        2     0.08453   16.12164    3.76353   19.13347
      61      444        2     0.08453    4.33689    4.08662   19.01690
      62      444        2     0.08453   13.50822    4.08656   19.01690
      63      444        2     0.08453    3.96583    5.27336    0.51467
      64      444        2     0.08453   13.13726    5.27340    0.51447
      65      444        2     0.08453    4.07966    2.65560    1.39168
      66      444        2     0.08453   13.25103    2.65562    1.39089
      67      444        2     0.08453    5.47059    2.63728    2.49116
      68      444        2     0.08453   14.64198    2.63728    2.49116
      69      444        2     0.08453    8.37651    2.03039    0.54213
      70      444        2     0.08453   17.54787    2.03039    0.54213
      71      444        2     0.08453    7.41797    2.27992    2.00711
      72      444        2     0.08453   16.58936    2.27990    2.00711
      73      444        2     0.08453    0.99173    4.27538    2.91495
      74      444        2     0.08453   10.16307    4.27536    2.91416
      75      444        2     0.08453    0.73674    2.56744    2.61128
      76      444        2     0.08453    9.90814    2.56744    2.61128
      77      444        2     0.08453   18.10997    4.43738   19.27453
      78      444        2     0.08453    8.93836    4.43736   19.27453
      79      444        2     0.08453    1.15527    3.63098    0.25783
      80      444        2     0.08453   10.32666    3.63100    0.25783
      81      444        2     0.08453    6.08756   19.61961   17.46301
      82      444        2     0.08453   15.25889   19.61961   17.46301
      83      444        2     0.08453    6.95040   19.13349   15.99388
      84      444        2     0.08453   16.12178   19.13349   15.99329
      85      444        2     0.08453    4.33706   19.01690   15.67066
      86      444        2     0.08453   13.50836   19.01696   15.67086
      87      444        2     0.08453    3.96580    0.51473   14.48405
      88      444        2     0.08453   13.13734    0.51461   14.48386
      89      444        2     0.08453    4.07971    1.39184   17.10166
      90      444        2     0.08453   13.25110    1.39186   17.10166
      91      444        2     0.08453    5.47066    2.49124   17.12003
      92      444        2     0.08453   14.64201    2.49124   17.12003
      93      444        2     0.08453    8.37658    0.54221   17.72697
      94      444        2     0.08453   17.54791    0.54219   17.72697
      95      444        2     0.08453    7.41802    2.00721   17.47744
      96      444        2     0.08453   16.58941    2.00719   17.47744
      97      444        2     0.08453    0.99182    2.91505   15.48198
      98      444        2     0.08453   10.16305    2.91520   15.48198
      99      444        2     0.08453    0.73677    2.61144   17.18978
     100      444        2     0.08453    9.90827    2.61132   17.18978
     101      444        2     0.08453   18.11011   19.27459   15.31997
     102      444        2     0.08453    8.93850   19.27461   15.31997
     103      444        2     0.08453    1.15534    0.25799   16.12626
     104      444        2     0.08453   10.32669    0.25799   16.12626
     105      444        2     0.08453    6.08726    0.13781    2.29379
     106      444        2     0.08453   15.25865    0.13782    2.29418
     107      444        2     0.08453    6.95012    0.62393    3.76173
     108      444        2     0.08453   16.12153    0.62393    3.76173
     109      444        2     0.08453    4.33676    0.74049    4.08654
     110      444        2     0.08453   13.50811    0.74049    4.08654
     111      444        2     0.08453    3.96596   19.24273    5.27334
     112      444        2     0.08453   13.13741   19.24278    5.27334
     113      444        2     0.08453    4.07979   18.36555    2.65554
     114      444        2     0.08453   13.25114   18.36561    2.65554
     115      444        2     0.08453    5.47073   17.26620    2.63716
     116      444        2     0.08453   14.64209   17.26620    2.63716
     117      444        2     0.08453    8.37665   19.21524    2.03023
     118      444        2     0.08453   17.54804   19.21520    2.03023
     119      444        2     0.08453    7.41811   17.75022    2.27976
     120      444        2     0.08453   16.58950   17.75022    2.27976
     121      444        2     0.08453    0.99177   16.84221    4.27522
     122      444        2     0.08453   10.16318   16.84223    4.27522
     123      444        2     0.08453    0.73692   17.14605    2.56742
     124      444        2     0.08453    9.90827   17.14603    2.56742
     125      444        2     0.08453   18.10985    0.48280    4.43722
     126      444        2     0.08453    8.93822    0.48280    4.43722
     127      444        2     0.08453    1.15542   19.49941    3.63094
     128      444        2     0.08453   10.32679   19.49943    3.63094
     129      444        2     0.08453    1.50167    7.58434    9.74079
     130      444        2     0.08453   10.67306    7.58434    9.74079
     131      444        2     0.08453    2.36456    6.11519    9.25477
     132      444        2     0.08453   11.53593    6.11519    9.25477
     133      444        2     0.08453    8.92252    5.79216    9.13821
     134      444        2     0.08453   18.09391    5.79216    9.13821
     135      444        2     0.08453    8.55159    4.60536   10.39218
     136      444        2     0.08453   17.72298    4.60536   10.39317
     137      444        2     0.08453    8.66541    7.22314   11.27038
     138      444        2     0.08453   17.83679    7.22312   11.27038
     139      444        2     0.08453    0.88497    7.24143   12.36986
     140      444        2     0.08453   10.05635    7.24141   12.36986
     141      444        2     0.08453    3.79088    7.84833   10.42083
     142      444        2     0.08453   12.96225    7.84831   10.42083
     143      444        2     0.08453    2.83235    7.59880   11.88581
     144      444        2     0.08453   12.00372    7.59878   11.88581
     145      444        2     0.08453    5.57743    5.60334   12.79266
     146      444        2     0.08453   14.74884    5.60330   12.79365
     147      444        2     0.08453    5.32253    7.31126   12.48998
     148      444        2     0.08453   14.49390    7.31124   12.48998
     149      444        2     0.08453    4.35263    5.44137    9.39584
     150      444        2     0.08453   13.52402    5.44135    9.39584
     151      444        2     0.08453    5.74103    6.24768   10.13653
     152      444        2     0.08453   14.91242    6.24770   10.13653
     153      444        2     0.08453    1.50170   12.17306   10.01640
     154      444        2     0.08453   10.67312   12.17308   10.01640
     155      444        2     0.08453    2.36460   13.64225   10.50085
     156      444        2     0.08453   11.53599   13.64223   10.50085
     157      444        2     0.08453    8.92261   13.96531   10.61741
     158      444        2     0.08453   18.09387   13.96520   10.61899
     159      444        2     0.08453    8.55164   15.15208    9.36403
     160      444        2     0.08453   17.72322   15.15224    9.36403
     161      444        2     0.08453    8.66547   12.53430    8.48682
     162      444        2     0.08453   17.83682   12.53431    8.48682
     163      444        2     0.08453    0.88497   12.51600    7.38734
     164      444        2     0.08453   10.05642   12.51600    7.38734
     165      444        2     0.08453    3.79090   11.90908    9.33637
     166      444        2     0.08453   12.96233   11.90910    9.33637
     167      444        2     0.08453    2.83241   12.15860    7.87139
     168      444        2     0.08453   12.00378   12.15862    7.87139
     169      444        2     0.08453    5.57764   14.15405    6.96355
     170      444        2     0.08453   14.74884   14.15407    6.96335
     171      444        2     0.08453    5.32246   12.44614    7.26662
     172      444        2     0.08453   14.49398   12.44616    7.26722
     173      444        2     0.08453    4.35268   14.31602   10.36136
     174      444        2     0.08453   13.52410   14.31608   10.36136
     175      444        2     0.08453    5.74110   13.50968    9.62067
     176      444        2     0.08453   14.91247   13.50968    9.62067
     177      444        2     0.08453    1.50169    9.74089   12.17229
     178      444        2     0.08453   10.67310    9.74091   12.17229
     179      444        2     0.08453    2.36459    9.25479   13.64221
     180      444        2     0.08453   11.53598    9.25479   13.64221
     181      444        2     0.08453    8.92256    9.13826   13.96524
     182      444        2     0.08453   18.09390    9.13828   13.96504
     183      444        2     0.08453    8.55169   10.39335   15.15204
     184      444        2     0.08453   17.72319   10.39325   15.15204
     185      444        2     0.08453    8.66547   11.27056   12.53424
     186      444        2     0.08453   17.83682   11.27058   12.53424
     187      444        2     0.08453    0.88499   12.36992   12.51586
     188      444        2     0.08453   10.05640   12.36992   12.51586
     189      444        2     0.08453    3.79089   10.42089   11.90893
     190      444        2     0.08453   12.96230   10.42089   11.90893
     191      444        2     0.08453    2.83240   11.88589   12.15846
     192      444        2     0.08453   12.00377   11.88591   12.15846
     193      444        2     0.08453    5.57761   12.79372   14.15391
     194      444        2     0.08453   14.74891   12.79380   14.15391
     195      444        2     0.08453    5.32251   12.49016   12.44612
     196      444        2     0.08453   14.49396   12.49010   12.44612
     197      444        2     0.08453    4.35266    9.39588   14.31592
     198      444        2     0.08453   13.52407    9.39592   14.31592
     199      444        2     0.08453    5.74108   10.13664   13.50964
     200      444        2     0.08453   14.91247   10.13666   13.50964
     201      444        2     0.08453    1.50168   10.01652    7.58432
     202      444        2     0.08453   10.67307   10.01652    7.58432
     203      444        2     0.08453    2.36456   10.50262    6.11479
     204      444        2     0.08453   11.53593   10.50262    6.11479
     205      444        2     0.08453    8.92255   10.61919    5.79196
     206      444        2     0.08453   18.09392   10.61919    5.79196
     207      444        2     0.08453    8.55158    9.36405    4.60338
     208      444        2     0.08453   17.72297    9.36405    4.60338
     209      444        2     0.08453    8.66542    8.48688    7.22296
     210      444        2     0.08453   17.83679    8.48688    7.22296
     211      444        2     0.08453    0.88496    7.38748    7.24134
     212      444        2     0.08453   10.05635    7.38746    7.24134
     213      444        2     0.08453    3.79089    9.33651    7.84827
     214      444        2     0.08453   12.96226    9.33653    7.84827
     215      444        2     0.08453    2.83235    7.87152    7.59874
     216      444        2     0.08453   12.00374    7.87152    7.59874
     217      444        2     0.08453    5.57738    6.96351    5.60328
     218      444        2     0.08453   14.74881    6.96353    5.60328
     219      444        2     0.08453    5.32253    7.26736    7.31108
     220      444        2     0.08453   14.49388    7.26732    7.31108
     221      444        2     0.08453    4.35264   10.36152    5.44128
     222      444        2     0.08453   13.52403   10.36150    5.44128
     223      444        2     0.08453    5.74103    9.62069    6.24756
     224      444        2     0.08453   14.91242    9.62069    6.24756
     225      444        3    -0.13569    6.59251   16.55309   19.50589
     226      444        3    -0.13569   15.76390   16.55311   19.50589
     227      444        3    -0.13569    4.79708   14.97806    0.00000
     228      444        3    -0.13569   13.96849   14.97810    0.00000
     229      444        4     0.76444    5.54407   13.88706    0.78020
     230      444        4     0.76444   14.71546   13.88710    0.77052
     231      444        3    -0.13569    4.81688   16.45564   17.84452
     232      444        3    -0.13569   13.98827   16.45564   17.84452
     233      444        4     0.71005    4.06202   15.61615   16.80333
     234      444        4     0.71005   13.23339   15.61613   16.80491
     235      444        3    -0.13569    7.78057   16.97504   18.65535
     236      444        3    -0.13569   16.95196   16.97504   18.65535
     237      444        3    -0.13569    0.20594   16.22494   17.02401
     238      444        3    -0.13569    9.37732   16.22496   17.02401
     239      444        4     0.76444    8.53627   16.29304   15.74593
     240      444        4     0.76444   17.70766   16.29302   15.74593
     241      444        3    -0.13569    0.34174   15.39695   19.30654
     242      444        3    -0.13569    9.51311   15.39695   19.30654
     243      444        4     0.71005    0.98930   14.01502   19.10581
     244      444        4     0.71005   10.16067   14.01502   19.10581
     245      444        3    -0.13569    6.59235    3.20431    0.25151
     246      444        3    -0.13569   15.76375    3.20429    0.25091
     247      444        3    -0.13569    4.79689    4.77938   19.74929
     248      444        3    -0.13569   13.96830    4.77934   19.74929
     249      444        4     0.76444    5.54405    5.87038   18.97699
     250      444        4     0.76444   14.71546    5.87032   18.97699
     251      444        3    -0.13569    4.81673    3.30179    1.91109
     252      444        3    -0.13569   13.98812    3.30179    1.91109
     253      444        4     0.71005    4.06184    4.14128    2.95249
     254      444        4     0.71005   13.23321    4.14128    2.95249
     255      444        3    -0.13569    7.78042    2.78238    1.10185
     256      444        3    -0.13569   16.95182    2.78240    1.10185
     257      444        3    -0.13569    0.20578    3.53251    2.73239
     258      444        3    -0.13569    9.37715    3.53247    2.73318
     259      444        4     0.76444    8.53610    3.46441    4.01126
     260      444        4     0.76444   17.70749    3.46443    4.01126
     261      444        3    -0.13569    0.34155    4.36045    0.45046
     262      444        3    -0.13569    9.51294    4.36047    0.45066
     263      444        4     0.71005    0.98910    5.74237    0.65139
     264      444        4     0.71005   10.16051    5.74237    0.65139
     265      444        3    -0.13569    6.59239    0.25153   16.55301
     266      444        3    -0.13569   15.76381    0.25151   16.55301
     267      444        3    -0.13569    4.79724   19.74933   14.97798
     268      444        3    -0.13569   13.96870   19.74929   14.97798
     269      444        4     0.76444    5.54415   18.97707   13.88700
     270      444        4     0.76444   14.71556   18.97701   13.88700
     271      444        3    -0.13569    4.81680    1.91113   16.45561
     272      444        3    -0.13569   13.98815    1.91117   16.45561
     273      444        4     0.71005    4.06191    2.95251   15.61613
     274      444        4     0.71005   13.23324    2.95253   15.61593
     275      444        3    -0.13569    7.78044    1.10199   16.97502
     276      444        3    -0.13569   16.95187    1.10201   16.97324
     277      444        3    -0.13569    0.20584    2.73338   16.22484
     278      444        3    -0.13569    9.37719    2.73334   16.22484
     279      444        4     0.76444    8.53615    4.01134   16.29301
     280      444        4     0.76444   17.70756    4.01138   16.29281
     281      444        3    -0.13569    0.34159    0.45066   15.39683
     282      444        3    -0.13569    9.51298    0.45070   15.39683
     283      444        4     0.71005    0.98912    0.65151   14.01364
     284      444        4     0.71005   10.16057    0.65153   14.01364
     285      444        3    -0.13569    6.59248   19.50589    3.20419
     286      444        3    -0.13569   15.76384   19.50589    3.20419
     287      444        3    -0.13569    4.79668    0.00000    4.77922
     288      444        3    -0.13569   13.96810    0.00000    4.77922
     289      444        4     0.76444    5.54395    0.78036    5.87020
     290      444        4     0.76444   14.71536    0.78040    5.87020
     291      444        3    -0.13569    4.81687   17.84628    3.30139
     292      444        3    -0.13569   13.98821   17.84630    3.30159
     293      444        4     0.71005    4.06197   16.80491    4.14126
     294      444        4     0.71005   13.23336   16.80491    4.14126
     295      444        3    -0.13569    7.78055   18.65543    2.78179
     296      444        3    -0.13569   16.95190   18.65545    2.78179
     297      444        3    -0.13569    0.20589   17.02405    3.53235
     298      444        3    -0.13569    9.37728   17.02405    3.53235
     299      444        4     0.76444    8.53623   15.74605    3.46340
     300      444        4     0.76444   17.70758   15.74605    3.46419
     301      444        3    -0.13569    0.34170   19.30674    4.36037
     302      444        3    -0.13569    9.51307   19.30674    4.36037
     303      444        4     0.71005    0.98926   19.10591    5.74237
     304      444        4     0.71005   10.16065   19.10589    5.74138
     305      444        3    -0.13569    2.00671    6.67441   10.13020
     306      444        3    -0.13569   11.17812    6.67441   10.13020
     307      444        3    -0.13569    0.21127    5.09938    9.87099
     308      444        3    -0.13569    9.38264    5.09936    9.87099
     309      444        4     0.76444    0.95833    4.00838    9.09830
     310      444        4     0.76444   10.12970    4.00838    9.09830
     311      444        3    -0.13569    0.23111    6.57693   11.78979
     312      444        3    -0.13569    9.40248    6.57693   11.78979
     313      444        4     0.71005    8.64758    5.73743   12.83118
     314      444        4     0.71005   17.81897    5.73743   12.83118
     315      444        3    -0.13569    3.19478    7.09632   10.98055
     316      444        3    -0.13569   12.36619    7.09632   10.98055
     317      444        3    -0.13569    4.79152    6.34622   12.61188
     318      444        3    -0.13569   13.96291    6.34621   12.61089
     319      444        4     0.76444    3.95048    6.41429   13.88996
     320      444        4     0.76444   13.12187    6.41429   13.88996
     321      444        3    -0.13569    4.92730    5.51825   10.32896
     322      444        3    -0.13569   14.09869    5.51825   10.32935
     323      444        4     0.71005    5.57484    4.13631   10.53009
     324      444        4     0.71005   14.74623    4.13633   10.53009
     325      444        3    -0.13569    2.00681   13.08297    9.62719
     326      444        3    -0.13569   11.17818   13.08301    9.62561
     327      444        3    -0.13569    0.21142   14.65798    9.88640
     328      444        3    -0.13569    9.38270   14.65807    9.88621
     329      444        4     0.76444    0.95848   15.74896   10.65910
     330      444        4     0.76444   10.12979   15.74906   10.65890
     331      444        3    -0.13569    0.23111   13.18051    7.96741
     332      444        3    -0.13569    9.40256   13.18049    7.96741
     333      444        4     0.71005    8.64765   14.01998    6.92621
     334      444        4     0.71005   17.81898   14.02000    6.92601
     335      444        3    -0.13569    3.19486   12.66112    8.77665
     336      444        3    -0.13569   12.36623   12.66110    8.77665
     337      444        3    -0.13569    4.79159   13.41127    7.14413
     338      444        3    -0.13569   13.96294   13.41117    7.14532
     339      444        4     0.76444    3.95054   13.34323    5.86724
     340      444        4     0.76444   13.12190   13.34307    5.86724
     341      444        3    -0.13569    4.92734   14.23913    9.42804
     342      444        3    -0.13569   14.09877   14.23917    9.42784
     343      444        4     0.71005    5.57488   15.62107    9.22711
     344      444        4     0.71005   14.74634   15.62107    9.22711
     345      444        3    -0.13569    2.00683   10.13020   13.08289
     346      444        3    -0.13569   11.17820   10.13022   13.08289
     347      444        3    -0.13569    0.21139    9.87097   14.65792
     348      444        3    -0.13569    9.38273    9.87101   14.65792
     349      444        4     0.76444    0.95843    9.09828   15.74890
     350      444        4     0.76444   10.12979    9.09834   15.74890
     351      444        3    -0.13569    0.23114   11.78987   13.18049
     352      444        3    -0.13569    9.40253   11.78985   13.18049
     353      444        4     0.71005    8.64765   12.83122   14.01996
     354      444        4     0.71005   17.81900   12.83124   14.01996
     355      444        3    -0.13569    3.19488   10.98070   12.66108
     356      444        3    -0.13569   12.36627   10.98072   12.66108
     357      444        3    -0.13569    4.79161   12.61208   13.41105
     358      444        3    -0.13569   13.96299   12.61208   13.41105
     359      444        4     0.76444    3.95057   13.89008   13.34309
     360      444        4     0.76444   13.12194   13.89006   13.34309
     361      444        3    -0.13569    4.92735   10.32933   14.23907
     362      444        3    -0.13569   14.09876   10.32935   14.23907
     363      444        4     0.71005    5.57490   10.53020   15.61988
     364      444        4     0.71005   14.74630   10.53022   15.62107
     365      444        3    -0.13569    2.00669    9.62719    6.67431