Created on Tue Feb 06 14:38:52 2018 

        1248 atoms
        1488 bonds
        2688 angles
        3360 dihedrals
        2016 impropers

           4 atom types
           6 bond types
           8 angle types
           3 dihedral types
           1 improper types
           0.000000  35.478000 xlo xhi
           0.000000  35.200363 ylo yhi
           0.000000  34.865139 zlo zhi
          -4.097104  -4.192123  -4.674364 xy xz yz

Masses

    1    63.546000000 # Cu4+2
    2     1.007940000 # H_
    3    12.010700000 # C_R
    4    15.999400000 # O_2

Bond Coeffs

    1      221.999373        2.029549  # Cu4+2 O_2
    2       70.296579        3.032715  # Cu4+2 Cu4+2
    3      357.440381        1.081418  # H_ C_R
    4      462.655054        1.379256  # C_R C_R
    5      391.669513        1.458000  # C_R C_R
    6      714.557442        1.269010  # C_R O_2

Angle Coeffs

    1       54.106605               1               4 # O_2 Cu4+2 O_2
    2       17.208069               1               4 # O_2 Cu4+2 Cu4+2
    3      101.626578              -1               3 # C_R C_R C_R
    4      117.010657              -1               3 # C_R C_R C_R
    5       76.817955              -1               3 # C_R C_R H_
    6      148.862838              -1               3 # O_2 C_R C_R
    7      256.805977              -1               3 # O_2 C_R O_2
    8       59.956996              -1               3 # Cu4+2 O_2 C_R

Dihedral Coeffs

    1        1.497136              -1               2 # C_R C_R C_R C_R
    2        0.555556              -1               2 # C_R C_R C_R O_2
    3        2.245703              -1               2 # O_2 C_R O_2 Cu4+2

Improper Coeffs

    1        2.000000        1.000000       -1.000000        0.000000               0 # C_R C_R C_R C_R

Pair Coeffs

    1        0.005000        3.113691 # Cu4+2 Cu4+2
    2        0.044000        2.571134 # H_ H_
    3        0.105000        3.430851 # C_R C_R
    4        0.060000        3.118146 # O_2 O_2

Atoms

       1      444        1     0.92675    1.66879   13.79992   15.75521
       2      444        1     0.92675   13.53165    3.25487   15.75556
       3      444        1     0.92675   13.55489   15.20669    5.30560
       4      444        1     0.92675   13.04014    1.01555   14.89264
       5      444        1     0.92675   13.06178   14.64928    2.97051
       6      444        1     0.92675   -0.49239   13.04667   14.88393
       7      444        2     0.10418    1.05929    6.50261   14.27030
       8      444        2     0.10418    0.24187    8.84407   14.26176
       9      444        2     0.10418    4.51269    7.73255   16.54107
      10      444        2     0.10418    3.72408   10.08357   16.44693
      11      444        2     0.10418    1.33667    4.72675   15.54131
      12      444        2     0.10418    0.03688    3.29232   15.54236
      13      444        2     0.10418   13.10592    2.59404    8.32370
      14      444        2     0.10418   12.87586    1.74120   10.64206
      15      444        2     0.10418   14.77421    6.26338    9.85550
      16      444        2     0.10418   14.45617    5.42918   12.17142
      17      444        2     0.10418   14.57459    3.05025    6.73856
      18      444        2     0.10418   14.91812    1.78780    5.31502
      19      444        2     0.10418    6.37281   13.99146    3.61918
      20      444        2     0.10418    8.79362   14.05735    3.08591
      21      444        2     0.10418    7.19315   15.71626    7.48537
      22      444        2     0.10418    9.62039   15.69291    6.96902
      23      444        2     0.10418    4.56195   15.20975    3.88886
      24      444        2     0.10418    3.28614   15.33831    2.44910
      25      444        2     0.10418    6.35172    1.75317   14.32434
      26      444        2     0.10418    8.77312    1.21687   14.31336
      27      444        2     0.10418    7.17469    5.35169   16.55362
      28      444        2     0.10418    9.60178    4.84375   16.45704
      29      444        2     0.10418    4.54401    1.85203   15.57426
      30      444        2     0.10418    3.26312    0.40542   15.53277
      31      444        2     0.10418    1.08702   13.26961    8.32667
      32      444        2     0.10418    0.26803   12.95806   10.64624
      33      444        2     0.10418    4.53057   15.37669    9.84225
      34      444        2     0.10418    3.74099   14.97887   12.16044
      35      444        2     0.10418    1.35642   14.76298    6.73054
      36      444        2     0.10418    0.05535   14.97988    5.30822
      37      444        2     0.10418   13.15533    7.93304    3.64654
      38      444        2     0.10418   12.92601   10.34537    3.11415
      39      444        2     0.10418   14.79102    8.95576    7.50315
      40      444        2     0.10418   14.47512   11.36333    6.98715
      41      444        2     0.10418   14.61120    6.29329    3.90368
      42      444        2     0.10418   14.92552    5.04391    2.46200
      43      444        2     0.10418    5.41028    6.04257   15.32828
      44      444        2     0.10418   -0.80169   -0.89027   15.17435
      45      444        2     0.10418   13.69245    7.04329    8.02229
      46      444        2     0.10418   15.21984    0.98956    1.11917
      47      444        2     0.10418    5.43276   14.40223    8.00695
      48      444        2     0.10418   -0.77738   15.17399    1.11237
      49      444        3    -0.02055    1.93130    9.60976   15.35374
      50      444        3    -0.08836    1.63617    7.27692   14.77602
      51      444        3    -0.08836    1.17925    8.58937   14.75371
      52      444        3    -0.02055    2.84469    6.93844   15.41423
      53      444        3    -0.08836    3.58785    7.97156   16.01530
      54      444        3    -0.08836    3.14510    9.28881   15.97922
      55      444        3     0.66798    1.44367   11.01680   15.33317
      56      444        3     0.66798   -1.96276    1.57120   15.33979
      57      444        3    -0.02055    3.31621    5.53601   15.45676
      58      444        3    -0.08836    2.39494    4.47948   15.50366
      59      444        3    -0.02055   -0.50482    1.24417   15.37012
      60      444        3    -0.08836    0.42847    2.28018   15.48343
      61      444        3    -0.02055   13.65204    3.53135   11.55047
      62      444        3    -0.08836   13.43118    3.21179    9.16082
      63      444        3    -0.08836   13.28586    2.73287   10.45745
      64      444        3    -0.02055   13.96597    4.49064    8.91467
      65      444        3    -0.08836   14.33154    5.28092   10.02042
      66      444        3    -0.08836   14.17008    4.81429   11.31966
      67      444        3     0.66798   13.50171    3.02062   12.94089
      68      444        3     0.66798   15.18008   -0.18872    3.58065
      69      444        3    -0.02055   14.14138    4.98977    7.53279
      70      444        3    -0.08836   14.44376    4.10104    6.49119
      71      444        3    -0.02055   15.08973    1.26779    3.26198
      72      444        3    -0.08836   14.95317    2.18900    4.30567
      73      444        3    -0.02055    9.35840   14.87388    4.99600
      74      444        3    -0.08836    7.07495   14.39256    4.35012
      75      444        3    -0.08836    8.43190   14.41244    4.04959
      76      444        3    -0.02055    6.59900   14.85080    5.59359
      77      444        3    -0.08836    7.53832   15.32453    6.52850
      78      444        3    -0.08836    8.89822   15.32822    6.23912
      79      444        3     0.66798   10.81463   14.88128    4.68465
      80      444        3     0.66798    1.80626   15.45166    0.26515
      81      444        3    -0.02055    5.15340   14.83127    5.91034
      82      444        3    -0.08836    4.20244   15.01448    4.89629
      83      444        3    -0.02055    1.31215   15.28735    1.66620
      84      444        3    -0.08836    2.23787   15.25568    2.70205
      85      444        3    -0.02055    9.33836    2.99867   15.38041
      86      444        3    -0.08836    7.05449    2.42327   14.81943
      87      444        3    -0.08836    8.41151    2.12342   14.79607
      88      444        3    -0.02055    6.57925    3.59290   15.44177
      89      444        3    -0.08836    7.51914    4.45624   16.03622
      90      444        3    -0.08836    8.87894    4.17105   15.99787
      91      444        3     0.66798   10.79408    2.68789   15.34798
      92      444        3     0.66798    1.77754   -1.77216   15.33839
      93      444        3    -0.02055    5.13319    3.90697   15.47315
      94      444        3    -0.08836    4.18324    2.87650   15.52144
      95      444        3    -0.02055    1.28793   -0.36022   15.36716
      96      444        3    -0.08836    2.21370    0.68262   15.47960
      97      444        3    -0.02055    1.95185   13.95013   11.54733
      98      444        3    -0.08836    1.66162   13.67384    9.16012
      99      444        3    -0.08836    1.20371   13.48213   10.45832
     100      444        3    -0.02055    2.86722   14.35628    8.90630
     101      444        3    -0.08836    3.60764   14.82150   10.01048
     102      444        3    -0.08836    3.16402   14.61480   11.31182
     103      444        3     0.66798    1.45962   13.75018   12.94037
     104      444        3     0.66798   -1.94097   15.01055    3.57542
     105      444        3    -0.02055    3.33748   14.58493    7.52215
     106      444        3    -0.08836    2.41502   14.76730    6.48143
     107      444        3    -0.02055   -0.48305   15.08092    3.25466
     108      444        3    -0.08836    0.44882   15.05228    4.29765
     109      444        3    -0.02055   13.68392   11.00334    5.01797
     110      444        3    -0.08836   13.47359    8.67912    4.37470
     111      444        3    -0.08836   13.32824   10.02832    4.07504
     112      444        3    -0.02055   13.99595    8.26294    5.61329
     113      444        3    -0.08836   14.35591    9.25172    6.54854
     114      444        3    -0.08836   14.19508   10.60192    6.26091
     115      444        3     0.66798   13.52692   12.44919    4.70139
     116      444        3     0.66798   15.19445    3.58342    0.27613
     117      444        3    -0.02055   14.15937    6.82601    5.92655
     118      444        3    -0.08836   14.46344    5.90907    4.91023
     119      444        3    -0.02055   15.09538    3.07664    1.67754
     120      444        3    -0.08836   14.95841    3.99076    2.72645
     121      444        3    -0.08836    4.68582    5.23568   15.43323
     122      444        3    -0.02055    2.80378    3.13671   15.52179
     123      444        3    -0.02055    1.81006    2.02766   15.50732
     124      444        3    -0.08836   -0.07970   -0.08467   15.28366
     125      444        3    -0.08836   13.99402    6.35224    7.23591
     126      444        3    -0.02055   14.59534    4.53509    5.16492
     127      444        3    -0.02055   14.85064    3.56825    4.06231
     128      444        3    -0.08836   15.13595    1.70380    1.93519
     129      444        3    -0.08836    4.70705   14.61045    7.22144
     130      444        3    -0.02055    2.82337   14.97050    5.15376
     131      444        3    -0.02055    1.83064   15.10485    4.05220
     132      444        3    -0.08836   -0.05638   15.17163    1.92630
     133      444        4    -0.56768    2.25730   11.92033   15.73638
     134      444        4    -0.56768   14.98358    0.65462   14.93413
     135      444        4    -0.56768   -2.29749    2.74375   15.72801
     136      444        4    -0.56768    0.24881   11.21549   14.91705
     137      444        4    -0.56768   13.68605    3.86022   13.89079
     138      444        4    -0.56768   12.95951   16.59240    2.61541
     139      444        4    -0.56768   15.42514   -0.49499    4.79884
     140      444        4    -0.56768   13.20670    1.78215   13.08070
     141      444        4    -0.56768   11.61439   15.14194    5.65094
     142      444        4    -0.56768   -1.10708   12.84320   16.75375
     143      444        4    -0.56768    3.01362   15.85373    0.12726
     144      444        4    -0.56768   11.15504   14.62825    3.47623
     145      444        4    -0.56768   11.59303    3.60853   15.74161
     146      444        4    -0.56768   -1.08864   14.93462   14.93169
     147      444        4    -0.56768    2.98126   -1.96881   15.72679
     148      444        4    -0.56768   11.13551    1.52583   14.93134
     149      444        4    -0.56768    2.26877   14.03409   13.89201
     150      444        4    -0.56768   15.00483   14.72660    2.61489
     151      444        4    -0.56768   -2.27476   15.24535    4.78855
     152      444        4    -0.56768    0.26352   13.31349   13.07913
     153      444        4    -0.56768   13.71130   13.27746    5.66123
     154      444        4    -0.56768   12.92457    0.39818   16.76891
     155      444        4    -0.56768   15.44546    4.83029    0.13371
     156      444        4    -0.56768   13.22545   12.75348    3.49453
     157      444        1     0.92675   -0.42727   11.46274   33.18778
     158      444        1     0.92675   11.43559    0.91768   33.18813
     159      444        1     0.92675   11.45883   12.86951   22.73817
     160      444        1     0.92675   10.94408   -1.32164   32.32521
     161      444        1     0.92675   10.96572   12.31210   20.40308
     162      444        1     0.92675   -2.58845   10.70949   32.31650
     163      444        2     0.10418   -1.03678    4.16543   31.70287
     164      444        2     0.10418   -1.85419    6.50689   31.69433
     165      444        2     0.10418    2.41663    5.39537   33.97364
     166      444        2     0.10418    1.62802    7.74639   33.87950
     167      444        2     0.10418   -0.75939    2.38957   32.97388
     168      444        2     0.10418   -2.05918    0.95514   32.97493
     169      444        2     0.10418   11.00986    0.25686   25.75627
     170      444        2     0.10418   10.77980   -0.59598   28.07463
     171      444        2     0.10418   12.67814    3.92620   27.28807
     172      444        2     0.10418   12.36011    3.09200   29.60399
     173      444        2     0.10418   12.47853    0.71307   24.17113
     174      444        2     0.10418   12.82206   -0.54938   22.74759
     175      444        2     0.10418    4.27675   11.65427   21.05175
     176      444        2     0.10418    6.69756   11.72017   20.51848
     177      444        2     0.10418    5.09709   13.37908   24.91794
     178      444        2     0.10418    7.52432   13.35573   24.40159
     179      444        2     0.10418    2.46588   12.87257   21.32143
     180      444        2     0.10418    1.19008   13.00113   19.88167
     181      444        2     0.10418    4.25566   -0.58401   31.75691
     182      444        2     0.10418    6.67705   -1.12031   31.74593
     183      444        2     0.10418    5.07863    3.01451   33.98619
     184      444        2     0.10418    7.50572    2.50656   33.88961
     185      444        2     0.10418    2.44795   -0.48516   33.00683
     186      444        2     0.10418    1.16706   -1.93177   32.96534
     187      444        2     0.10418   -1.00905   10.93243   25.75924
     188      444        2     0.10418   -1.82803   10.62088   28.07881
     189      444        2     0.10418    2.43451   13.03951   27.27482
     190      444        2     0.10418    1.64492   12.64169   29.59301
     191      444        2     0.10418   -0.73964   12.42580   24.16311
     192      444        2     0.10418   -2.04071   12.64269   22.74079
     193      444        2     0.10418   11.05927    5.59586   21.07911
     194      444        2     0.10418   10.82995    8.00818   20.54672
     195      444        2     0.10418   12.69496    6.61857   24.93572
     196      444        2     0.10418   12.37905    9.02615   24.41972
     197      444        2     0.10418   12.51514    3.95611   21.33624
     198      444        2     0.10418   12.82946    2.70672   19.89457
     199      444        2     0.10418    3.31422    3.70539   32.76085
     200      444        2     0.10418   -2.89776   -3.22745   32.60692
     201      444        2     0.10418   11.59639    4.70611   25.45486
     202      444        2     0.10418   13.12378   -1.34762   18.55174
     203      444        2     0.10418    3.33670   12.06504   25.43952
     204      444        2     0.10418   -2.87344   12.83681   18.54494
     205      444        3    -0.02055   -0.16477    7.27258   32.78630
     206      444        3    -0.08836   -0.45989    4.93974   32.20859
     207      444        3    -0.08836   -0.91681    6.25219   32.18628
     208      444        3    -0.02055    0.74862    4.60126   32.84680
     209      444        3    -0.08836    1.49179    5.63438   33.44787
     210      444        3    -0.08836    1.04904    6.95163   33.41179
     211      444        3     0.66798   -0.65239    8.67962   32.76573
     212      444        3     0.66798   -4.05882   -0.76598   32.77236
     213      444        3    -0.02055    1.22015    3.19883   32.88933
     214      444        3    -0.08836    0.29888    2.14230   32.93622
     215      444        3    -0.02055   -2.60088   -1.09301   32.80269
     216      444        3    -0.08836   -1.66759   -0.05700   32.91600
     217      444        3    -0.02055   11.55598    1.19417   28.98304
     218      444        3    -0.08836   11.33512    0.87461   26.59338
     219      444        3    -0.08836   11.18980    0.39569   27.89002
     220      444        3    -0.02055   11.86991    2.15346   26.34724
     221      444        3    -0.08836   12.23548    2.94374   27.45298
     222      444        3    -0.08836   12.07402    2.47710   28.75223
     223      444        3     0.66798   11.40565    0.68344   30.37346
     224      444        3     0.66798   13.08402   -2.52590   21.01322
     225      444        3    -0.02055   12.04532    2.65259   24.96536
     226      444        3    -0.08836   12.34770    1.76386   23.92376
     227      444        3    -0.02055   12.99366   -1.06939   20.69455
     228      444        3    -0.08836   12.85711   -0.14819   21.73824
     229      444        3    -0.02055    7.26234   12.53669   22.42857
     230      444        3    -0.08836    4.97889   12.05538   21.78269
     231      444        3    -0.08836    6.33584   12.07526   21.48216
     232      444        3    -0.02055    4.50294   12.51362   23.02616
     233      444        3    -0.08836    5.44225   12.98735   23.96107
     234      444        3    -0.08836    6.80216   12.99103   23.67169
     235      444        3     0.66798    8.71856   12.54410   22.11722
     236      444        3     0.66798   -0.28981   13.11448   17.69772
     237      444        3    -0.02055    3.05734   12.49408   23.34291
     238      444        3    -0.08836    2.10638   12.67729   22.32886
     239      444        3    -0.02055   -0.78391   12.95017   19.09877
     240      444        3    -0.08836    0.14181   12.91850   20.13462
     241      444        3    -0.02055    7.24230    0.66149   32.81298
     242      444        3    -0.08836    4.95843    0.08609   32.25200
     243      444        3    -0.08836    6.31545   -0.21376   32.22864
     244      444        3    -0.02055    4.48319    1.25572   32.87434
     245      444        3    -0.08836    5.42308    2.11906   33.46879
     246      444        3    -0.08836    6.78288    1.83386   33.43044
     247      444        3     0.66798    8.69802    0.35071   32.78055
     248      444        3     0.66798   -0.31852   -4.10934   32.77096
     249      444        3    -0.02055    3.03713    1.56979   32.90572
     250      444        3    -0.08836    2.08718    0.53932   32.95401
     251      444        3    -0.02055   -0.80813   -2.69740   32.79973
     252      444        3    -0.08836    0.11764   -1.65456   32.91217
     253      444        3    -0.02055   -0.14421   11.61295   28.97990
     254      444        3    -0.08836   -0.43444   11.33666   26.59269
     255      444        3    -0.08836   -0.89235   11.14495   27.89089
     256      444        3    -0.02055    0.77115   12.01909   26.33887
     257      444        3    -0.08836    1.51158   12.48432   27.44305
     258      444        3    -0.08836    1.06795   12.27762   28.74439
     259      444        3     0.66798   -0.63645   11.41300   30.37294
     260      444        3     0.66798   -4.03703   12.67336   21.00799
     261      444        3    -0.02055    1.24142   12.24775   24.95472
     262      444        3    -0.08836    0.31896   12.43012   23.91400
     263      444        3    -0.02055   -2.57911   12.74374   20.68723
     264      444        3    -0.08836   -1.64725   12.71510   21.73022
     265      444        3    -0.02055   11.58786    8.66616   22.45053
     266      444        3    -0.08836   11.37753    6.34194   21.80727
     267      444        3    -0.08836   11.23218    7.69114   21.50761
     268      444        3    -0.02055   11.89989    5.92576   23.04586
     269      444        3    -0.08836   12.25985    6.91453   23.98111
     270      444        3    -0.08836   12.09902    8.26473   23.69348
     271      444        3     0.66798   11.43086   10.11201   22.13396
     272      444        3     0.66798   13.09838    1.24624   17.70870
     273      444        3    -0.02055   12.06331    4.48883   23.35912
     274      444        3    -0.08836   12.36738    3.57189   22.34280
     275      444        3    -0.02055   12.99932    0.73946   19.11011
     276      444        3    -0.08836   12.86235    1.65357   20.15902
     277      444        3    -0.08836    2.58976    2.89850   32.86580
     278      444        3    -0.02055    0.70772    0.79953   32.95435
     279      444        3    -0.02055   -0.28600   -0.30952   32.93989
     280      444        3    -0.08836   -2.17576   -2.42185   32.71623
     281      444        3    -0.08836   11.89796    4.01506   24.66848
     282      444        3    -0.02055   12.49928    2.19791   22.59749
     283      444        3    -0.02055   12.75457    1.23107   21.49488
     284      444        3    -0.08836   13.03988   -0.63338   19.36776
     285      444        3    -0.08836    2.61098   12.27327   24.65401
     286      444        3    -0.02055    0.72731   12.63332   22.58633
     287      444        3    -0.02055   -0.26542   12.76767   21.48477
     288      444        3    -0.08836   -2.15244   12.83445   19.35887
     289      444        4    -0.56768    0.16124    9.58315   33.16895
     290      444        4    -0.56768   12.88752   -1.68256   32.36670
     291      444        4    -0.56768   -4.39355    0.40657   33.16058
     292      444        4    -0.56768   -1.84725    8.87830   32.34962
     293      444        4    -0.56768   11.58999    1.52304   31.32336
     294      444        4    -0.56768   10.86345   14.25521   20.04798
     295      444        4    -0.56768   13.32908   -2.83217   22.23141
     296      444        4    -0.56768   11.11064   -0.55503   30.51327
     297      444        4    -0.56768    9.51833   12.80476   23.08351
     298      444        4    -0.56768   -3.20314   10.50602   34.18631
     299      444        4    -0.56768    0.91756   13.51654   17.55983
     300      444        4    -0.56768    9.05898   12.29106   20.90880
     301      444        4    -0.56768    9.49697    1.27135   33.17418
     302      444        4    -0.56768   -3.18471   12.59744   32.36426
     303      444        4    -0.56768    0.88520   -4.30600   33.15936
     304      444        4    -0.56768    9.03945   -0.81135   32.36391
     305      444        4    -0.56768    0.17271   11.69691   31.32458
     306      444        4    -0.56768   12.90876   12.38942   20.04745
     307      444        4    -0.56768   -4.37082   12.90817   22.22112
     308      444        4    -0.56768   -1.83254   10.97631   30.51170
     309      444        4    -0.56768   11.61524   10.94028   23.09380
     310      444        4    -0.56768   10.82850   -1.93901   34.20148
     311      444        4    -0.56768   13.34940    2.49311   17.56628
     312      444        4    -0.56768   11.12939   10.41630   20.92710
     313      444        1     0.92675   -0.37976   31.40010   15.75521
     314      444        1     0.92675   11.48310   20.85505   15.75556
     315      444        1     0.92675   11.50634   32.80687    5.30560
     316      444        1     0.92675   10.99159   18.61573   14.89264
     317      444        1     0.92675   11.01323   32.24947    2.97051
     318      444        1     0.92675   -2.54094   30.64685   14.88393
     319      444        2     0.10418   -0.98927   24.10279   14.27030
     320      444        2     0.10418   -1.80668   26.44425   14.26176
     321      444        2     0.10418    2.46414   25.33273   16.54107
     322      444        2     0.10418    1.67553   27.68375   16.44693
     323      444        2     0.10418   -0.71188   22.32693   15.54131
     324      444        2     0.10418   -2.01167   20.89250   15.54236
     325      444        2     0.10418   11.05737   20.19422    8.32370
     326      444        2     0.10418   10.82731   19.34138   10.64206
     327      444        2     0.10418   12.72565   23.86357    9.85550
     328      444        2     0.10418   12.40762   23.02936   12.17142
     329      444        2     0.10418   12.52604   20.65043    6.73856
     330      444        2     0.10418   12.86957   19.38799    5.31502
     331      444        2     0.10418    4.32426   31.59164    3.61918
     332      444        2     0.10418    6.74507   31.65753    3.08591
     333      444        2     0.10418    5.14460   33.31644    7.48537
     334      444        2     0.10418    7.57183   33.29309    6.96902
     335      444        2     0.10418    2.51339   32.80993    3.88886
     336      444        2     0.10418    1.23759   32.93849    2.44910
     337      444        2     0.10418    4.30317   19.35335   14.32434
     338      444        2     0.10418    6.72456   18.81705   14.31336
     339      444        2     0.10418    5.12614   22.95188   16.55362
     340      444        2     0.10418    7.55323   22.44393   16.45704
     341      444        2     0.10418    2.49546   19.45221   15.57426
     342      444        2     0.10418    1.21457   18.00560   15.53277
     343      444        2     0.10418   -0.96154   30.86979    8.32667
     344      444        2     0.10418   -1.78052   30.55824   10.64624
     345      444        2     0.10418    2.48202   32.97687    9.84225
     346      444        2     0.10418    1.69243   32.57905   12.16044
     347      444        2     0.10418   -0.69213   32.36316    6.73054
     348      444        2     0.10418   -1.99320   32.58006    5.30822
     349      444        2     0.10418   11.10678   25.53322    3.64654
     350      444        2     0.10418   10.87746   27.94555    3.11415
     351      444        2     0.10418   12.74247   26.55594    7.50315
     352      444        2     0.10418   12.42656   28.96351    6.98715
     353      444        2     0.10418   12.56265   23.89347    3.90368
     354      444        2     0.10418   12.87697   22.64409    2.46200
     355      444        2     0.10418    3.36173   23.64275   15.32828
     356      444        2     0.10418   -2.85025   16.70991   15.17435
     357      444        2     0.10418   11.64390   24.64347    8.02229
     358      444        2     0.10418   13.17129   18.58975    1.11917
     359      444        2     0.10418    3.38421   32.00241    8.00695
     360      444        2     0.10418   -2.82593   32.77417    1.11237
     361      444        3    -0.02055   -0.11726   27.20994   15.35374
     362      444        3    -0.08836   -0.41238   24.87710   14.77602
     363      444        3    -0.08836   -0.86930   26.18955   14.75371
     364      444        3    -0.02055    0.79613   24.53863   15.41423
     365      444        3    -0.08836    1.53930   25.57174   16.01530
     366      444        3    -0.08836    1.09655   26.88899   15.97922
     367      444        3     0.66798   -0.60488   28.61698   15.33317
     368      444        3     0.66798   -4.01131   19.17138   15.33979
     369      444        3    -0.02055    1.26766   23.13619   15.45676
     370      444        3    -0.08836    0.34639   22.07967   15.50366
     371      444        3    -0.02055   -2.55337   18.84435   15.37012
     372      444        3    -0.08836   -1.62008   19.88037   15.48343
     373      444        3    -0.02055   11.60349   21.13153   11.55047
     374      444        3    -0.08836   11.38263   20.81197    9.16082
     375      444        3    -0.08836   11.23731   20.33305   10.45745
     376      444        3    -0.02055   11.91742   22.09082    8.91467
     377      444        3    -0.08836   12.28299   22.88110   10.02042
     378      444        3    -0.08836   12.12153   22.41447   11.31966
     379      444        3     0.66798   11.45316   20.62080   12.94089
     380      444        3     0.66798   13.13153   17.41146    3.58065
     381      444        3    -0.02055   12.09283   22.58995    7.53279
     382      444        3    -0.08836   12.39521   21.70122    6.49119
     383      444        3    -0.02055   13.04117   18.86797    3.26198
     384      444        3    -0.08836   12.90462   19.78918    4.30567
     385      444        3    -0.02055    7.30985   32.47406    4.99600
     386      444        3    -0.08836    5.02640   31.99274    4.35012
     387      444        3    -0.08836    6.38335   32.01262    4.04959
     388      444        3    -0.02055    4.55044   32.45098    5.59359