Created on Tue Feb 06 14:33:22 2018 

        3078 atoms
        3672 bonds
        7344 angles
        6480 dihedrals
        3888 impropers

           6 atom types
           9 bond types
          16 angle types
           3 dihedral types
           1 improper types
           0.000000  36.480000 xlo xhi
           0.000000  35.491372 ylo yhi
           0.000000  35.749029 zlo zhi
          -8.461129  -8.215151 -10.423240 xy xz yz

Masses

    1   137.327000000 # Ba6+2
    2    65.380000000 # Zn3f2
    3     1.007940000 # H_
    4    12.010700000 # C_R
    5    15.999400000 # O_R
    6    15.999400000 # O_3_z

Bond Coeffs

    1       99.935453        2.751925  # Ba6+2 O_R
    2      114.937445        2.626572  # Ba6+2 O_3_z
    3      148.759211        1.886642  # Zn3f2 O_R
    4      189.971085        1.738954  # Zn3f2 O_3_z
    5      357.440381        1.081418  # H_ C_R
    6      850.878848        0.861362  # H_ O_3_z
    7      646.680887        1.311940  # C_R O_R
    8      391.669513        1.458000  # C_R C_R
    9      462.655054        1.379256  # C_R C_R

Angle Coeffs

    1              cosine/periodic       14.903965               1               4 # O_3_z Ba6+2 O_3_z
    2              cosine/periodic       11.804980               1               4 # O_R Ba6+2 O_R
    3              cosine/periodic       13.228300               1               4 # O_3_z Ba6+2 O_R
    4                      fourier       54.868606        0.343737        0.374972        0.281246 # O_R Zn3f2 O_3_z
    5                      fourier       45.004281        0.343737        0.374972        0.281246 # O_R Zn3f2 O_R
    6              cosine/periodic      137.761490              -1               3 # C_R C_R O_R
    7              cosine/periodic      217.450257              -1               3 # O_R C_R O_R
    8              cosine/periodic      117.010657              -1               3 # C_R C_R C_R
    9              cosine/periodic      101.626578              -1               3 # C_R C_R C_R
   10              cosine/periodic       76.817955              -1               3 # C_R C_R H_
   11              cosine/periodic       27.455638              -1               3 # Ba6+2 O_R C_R
   12              cosine/periodic       46.721183              -1               3 # Zn3f2 O_R C_R
   13                      fourier       27.853795        1.898490        2.651251        0.799497 # Zn3f2 O_3_z H_
   14                      fourier        7.610758        1.898490        2.651251        0.799497 # Ba6+2 O_3_z Zn3f2
   15                      fourier      110.159549        1.898490        2.651251        0.799497 # H_ O_3_z H_
   16                      fourier       15.050190        1.898490        2.651251        0.799497 # Ba6+2 O_3_z H_

Dihedral Coeffs

    1        2.245703              -1               2 # C_R C_R O_R Zn3f2
    2        0.555556              -1               2 # O_R C_R C_R C_R
    3        1.497136              -1               2 # C_R C_R C_R C_R

Improper Coeffs

    1        2.000000        1.000000       -1.000000        0.000000               0 # O_R C_R C_R O_R

Pair Coeffs

    1        0.364000        3.298998 # Ba6+2 Ba6+2
    2        0.124000        2.461553 # Zn3f2 Zn3f2
    3        0.044000        2.571134 # H_ H_
    4        0.105000        3.430851 # C_R C_R
    5        0.060000        3.118146 # O_R O_R
    6        0.060000        3.118146 # O_3_z O_3_z

Atoms

       1      444        1     1.63648    7.04314   -0.18637    8.94000
       2      444        1     1.63648   -0.44143    8.54312    2.97563
       3      444        2     1.04278    8.66867    4.87958    0.58009
       4      444        2     1.04278    5.23197    0.53032    5.39358
       5      444        2     1.04278   -2.06697    3.47707   11.33566
       6      444        2     1.04278    1.36973    7.82653    6.52217
       7      444        3     0.10065   -2.40370   -2.31446   11.79730
       8      444        3     0.10065    2.06600   -0.06022    1.19509
       9      444        3     0.10065    1.54749    2.72432    4.43920
      10      444        3     0.10065   -0.24409    3.88117    3.16999
      11      444        3     0.10065    6.40470    1.48058    1.97513
      12      444        3     0.10065    4.09507   -2.81914    9.66892
      13      444        3     0.45225    7.11141    2.87885   10.60292
      14      444        3     0.45225    5.59787    2.65073   10.18728
      15      444        3     0.10065    6.91490    9.50512    6.08067
      16      444        3     0.10065    8.50480    8.10309    4.76868
      17      444        3     0.10065    5.67881    7.96014    1.52172
      18      444        3     0.10065    4.13818    9.43745    2.78771
      19      444        3     0.10065    8.01087    3.51669    3.98721
      20      444        3     0.10065    8.80145    3.29946    8.20726
      21      444        3     0.45225    4.07920   -0.96753    7.28053
      22      444        3     0.45225    3.94410    0.55573    7.70177
      23      444        3     0.10065    9.03268   10.70571    0.00000
      24      444        3     0.10065    4.53577    8.41698   10.72054
      25      444        3     0.10065    5.05422    5.63246    7.47643
      26      444        3     0.10065    6.84582    4.47558    8.74564
      27      444        3     0.10065    0.19693    6.87613    9.94049
      28      444        3     0.10065    2.53478   11.05814    2.24623
      29      444        3     0.45225   -0.50967    5.47789    1.31270
      30      444        3     0.45225    1.00385    5.70602    1.72847
      31      444        3     0.10065   -0.31319   -1.14831    5.83496
      32      444        3     0.10065   -1.90312    0.25368    7.14695
      33      444        3     0.10065    0.92294    0.39674   10.39355
      34      444        3     0.10065    2.46350   -1.08064    9.12792
      35      444        3     0.10065   -1.40916    4.84008    7.92842
      36      444        3     0.10065   -2.31561    5.05729    3.70837
      37      444        3     0.45225    2.52251    9.32439    4.63510
      38      444        3     0.45225    2.65761    7.80109    4.21398
      39      444        4     0.70731   10.99071    3.23415    0.65111
      40      444        4    -0.13001   -0.07110    2.59200    1.43425
      41      444        4    -0.05868    0.59611    1.48483    0.88610
      42      444        4    -0.05868    1.56268    0.80718    1.62134
      43      444        4    -0.13001    1.90491    1.24709    2.90997
      44      444        4    -0.05868    1.26985    2.37824    3.44442
      45      444        4    -0.05868    0.27635    3.03580    2.72193
      46      444        4     0.70731    2.94714    0.50569    3.69764
      47      444        4     0.70731    4.55013   -0.85613   11.57720
      48      444        4    -0.13001    3.91882   -2.20370   11.75964
      49      444        4    -0.05868    6.25839    0.82819    1.11513
      50      444        4    -0.05868    3.75235   -3.10481   10.64868
      51      444        4     0.70731    7.36939   -1.34394    5.30766
      52      444        4    -0.13001    5.42957    9.56724    4.52559
      53      444        4    -0.05868    6.66063    9.17517    5.07529
      54      444        4    -0.05868    7.54454    8.39129    4.34160
      55      444        4    -0.13001    7.19684    7.95512    3.05321
      56      444        4    -0.05868    5.95019    8.31093    2.51685
      57      444        4    -0.05868    5.08011    9.12637    3.23743
      58      444        4     0.70731    8.15877    7.10993    2.26840
      59      444        4     0.70731    7.11296    2.39860    6.30518
      60      444        4    -0.13001    8.27845    3.32361    6.11845
      61      444        4    -0.05868    8.61371    3.81158    4.84530
      62      444        4    -0.05868    9.05591    3.69657    7.22667
      63      444        4     0.70731   -4.38898    5.12256   11.26452
      64      444        4    -0.13001    6.67286    5.76475   10.48138
      65      444        4    -0.05868    6.00567    6.87191   11.02953
      66      444        4    -0.05868    5.03912    7.54960   10.29429
      67      444        4    -0.13001    4.69677    7.10965    9.00566
      68      444        4    -0.05868    5.33190    5.97856    8.47121
      69      444        4    -0.05868    6.32536    5.32095    9.19370
      70      444        4     0.70731    3.65464    7.85112    8.21799
      71      444        4     0.70731    2.05156    9.21281    0.33842
      72      444        4    -0.13001    2.68280   10.56042    0.15598
      73      444        4    -0.05868    0.34326    7.52852   10.80050
      74      444        4    -0.05868    2.86398   11.39994    1.26695
      75      444        4     0.70731   -0.76772    9.70067    6.60797
      76      444        4    -0.13001    1.17220   -1.21031    7.38992
      77      444        4    -0.05868   -0.05895   -0.81841    6.84034
      78      444        4    -0.05868   -0.94283   -0.03448    7.57391
      79      444        4    -0.13001   -0.59516    0.40164    8.86242
      80      444        4    -0.05868    0.65149    0.04584    9.39878
      81      444        4    -0.05868    1.52160   -0.76957    8.67808
      82      444        4     0.70731   -1.55711    1.24678    9.64723
      83      444        4     0.70731   -0.51119    5.95810    5.61045
      84      444        4    -0.13001   -1.67677    5.03321    5.79718
      85      444        4    -0.05868   -2.01197    4.54516    7.07032
      86      444        4    -0.05868   -2.51443    4.66015    4.68896
      87      444        5    -0.68302    7.79951   -0.78201   11.53943
      88      444        5    -0.61743   10.53380    4.38085    1.12061
      89      444        5    -0.68302    3.13113   -0.72103    3.49721
      90      444        5    -0.61743    3.61134    1.21982    4.54692
      91      444        5    -0.61743    7.59703    3.25299    0.74358
      92      444        5    -0.68302    4.75518   -0.41011   10.41262
      93      444        6    -0.84791    6.35705    2.18742   10.58815
      94      444        5    -0.68302    7.78979   -0.77837    6.33652
      95      444        5    -0.61743    6.14899   -1.16450    4.83637
      96      444        5    -0.68302    9.39510    7.21756    2.46490
      97      444        5    -0.61743    7.61706    6.29256    1.42531
      98      444        5    -0.61743    6.56265    1.95218    5.22460
      99      444        5    -0.68302    6.73031    2.09436    7.47071
     100      444        6    -0.84791    4.57383   -0.07170    7.29983
     101      444        5    -0.68302   -1.19777    9.13873    0.37620
     102      444        5    -0.61743   -3.93206    3.97587   10.79502
     103      444        5    -0.68302    3.47055    9.07781    8.41854
     104      444        5    -0.61743    2.99032    7.13697    7.36883
     105      444        5    -0.61743   -0.99538    5.10373   11.17205
     106      444        5    -0.68302    1.84651    8.76676    1.50301
     107      444        6    -0.84791    0.24464    6.16930    1.32760
     108      444        5    -0.68302   -1.18805    9.13515    5.57911
     109      444        5    -0.61743    0.45274    9.52139    7.07926
     110      444        5    -0.68302   -2.79341    1.13917    9.45061
     111      444        5    -0.61743   -1.01543    2.06409   10.49043
     112      444        5    -0.61743    0.03900    6.40469    6.69103
     113      444        5    -0.68302   -0.12856    6.26231    4.44492
     114      444        6    -0.84791    2.02787    8.42853    4.61591
     115      444        1     1.63648    4.30476   -3.66078   20.85634
     116      444        1     1.63648   -3.17982    5.06871   14.89197
     117      444        2     1.04278    5.93029    1.40517   12.49643
     118      444        2     1.04278    2.49359   -2.94409   17.30992
     119      444        2     1.04278   -4.80536    0.00266   23.25200
     120      444        2     1.04278   -1.36866    4.35212   18.43851
     121      444        3     0.10065   -5.14209   -5.78888   23.71364
     122      444        3     0.10065   -0.67238   -3.53464   13.11143
     123      444        3     0.10065   -1.19090   -0.75010   16.35554
     124      444        3     0.10065   -2.98248    0.40676   15.08633
     125      444        3     0.10065    3.66632   -1.99383   13.89148
     126      444        3     0.10065    1.35669   -6.29355   21.58526
     127      444        3     0.45225    4.37302   -0.59557   22.51927
     128      444        3     0.45225    2.85948   -0.82368   22.10362
     129      444        3     0.10065    4.17651    6.03071   17.99701
     130      444        3     0.10065    5.76642    4.62868   16.68502
     131      444        3     0.10065    2.94043    4.48573   13.43806
     132      444        3     0.10065    1.39980    5.96303   14.70405
     133      444        3     0.10065    5.27249    0.04228   15.90355
     134      444        3     0.10065    6.06306   -0.17496   20.12360
     135      444        3     0.45225    1.34081   -4.44194   19.19687
     136      444        3     0.45225    1.20571   -2.91869   19.61811
     137      444        3     0.10065    6.29430    7.23130   11.91634
     138      444        3     0.10065    1.79739    4.94257   22.63688
     139      444        3     0.10065    2.31584    2.15804   19.39278
     140      444        3     0.10065    4.10743    1.00116   20.66199
     141      444        3     0.10065   -2.54145    3.40172   21.85684
     142      444        3     0.10065   -0.20360    7.58372   14.16257
     143      444        3     0.45225   -3.24805    2.00348   13.22905
     144      444        3     0.45225   -1.73454    2.23161   13.64481
     145      444        3     0.10065   -3.05157   -4.62273   17.75130
     146      444        3     0.10065   -4.64151   -3.22073   19.06329
     147      444        3     0.10065   -1.81544   -3.07768   22.30990
     148      444        3     0.10065   -0.27488   -4.55505   21.04426
     149      444        3     0.10065   -4.14754    1.36567   19.84476
     150      444        3     0.10065   -5.05399    1.58288   15.62471
     151      444        3     0.45225   -0.21587    5.84997   16.55144
     152      444        3     0.45225   -0.08077    4.32668   16.13032
     153      444        4     0.70731    8.25232   -0.24026   12.56745
     154      444        4    -0.13001   -2.80948   -0.88242   13.35059
     155      444        4    -0.05868   -2.14228   -1.98959   12.80244
     156      444        4    -0.05868   -1.17570   -2.66723   13.53768
     157      444        4    -0.13001   -0.83348   -2.22732   14.82631
     158      444        4    -0.05868   -1.46854   -1.09618   15.36076
     159      444        4    -0.05868   -2.46204   -0.43861   14.63827
     160      444        4     0.70731    0.20876   -2.96872   15.61398
     161      444        4     0.70731    1.81175   -4.33054   23.49355
     162      444        4    -0.13001    1.18044   -5.67812   23.67599
     163      444        4    -0.05868    3.52000   -2.64622   13.03147
     164      444        4    -0.05868    1.01397   -6.57922   22.56503
     165      444        4     0.70731    4.63101   -4.81835   17.22400
     166      444        4    -0.13001    2.69119    6.09283   16.44193
     167      444        4    -0.05868    3.92224    5.70076   16.99163
     168      444        4    -0.05868    4.80616    4.91687   16.25794
     169      444        4    -0.13001    4.45846    4.48071   14.96955
     170      444        4    -0.05868    3.21180    4.83652   14.43319
     171      444        4    -0.05868    2.34173    5.65196   15.15377
     172      444        4     0.70731    5.42038    3.63552   14.18474
     173      444        4     0.70731    4.37457   -1.07581   18.22152
     174      444        4    -0.13001    5.54006   -0.15080   18.03479
     175      444        4    -0.05868    5.87533    0.33716   16.76165
     176      444        4    -0.05868    6.31752    0.22216   19.14301
     177      444        4     0.70731   -7.12736    1.64815   23.18086
     178      444        4    -0.13001    3.93447    2.29034   22.39772
     179      444        4    -0.05868    3.26728    3.39750   22.94587
     180      444        4    -0.05868    2.30074    4.07519   22.21063
     181      444        4    -0.13001    1.95839    3.63524   20.92200
     182      444        4    -0.05868    2.59352    2.50415   20.38755
     183      444        4    -0.05868    3.58698    1.84654   21.11004
     184      444        4     0.70731    0.91625    4.37670   20.13433
     185      444        4     0.70731   -0.68683    5.73839   12.25477
     186      444        4    -0.13001   -0.05558    7.08601   12.07233
     187      444        4    -0.05868   -2.39512    4.05411   22.71684
     188      444        4    -0.05868    0.12559    7.92553   13.18329
     189      444        4     0.70731   -3.50610    6.22626   18.52431
     190      444        4    -0.13001   -1.56619   -4.68473   19.30626
     191      444        4    -0.05868   -2.79734   -4.29282   18.75668
     192      444        4    -0.05868   -3.68122   -3.50889   19.49025
     193      444        4    -0.13001   -3.33354   -3.07278   20.77877
     194      444        4    -0.05868   -2.08689   -3.42857   21.31512
     195      444        4    -0.05868   -1.21678   -4.24399   20.59442
     196      444        4     0.70731   -4.29549   -2.22763   21.56358
     197      444        4     0.70731   -3.24957    2.48369   17.52680
     198      444        4    -0.13001   -4.41515    1.55879   17.71352
     199      444        4    -0.05868   -4.75036    1.07075   18.98667
     200      444        4    -0.05868   -5.25282    1.18574   16.60530
     201      444        5    -0.68302    5.06113   -4.25642   23.45577
     202      444        5    -0.61743    7.79541    0.90644   13.03696
     203      444        5    -0.68302    0.39275   -4.19545   15.41355
     204      444        5    -0.61743    0.87295   -2.25460   16.46326
     205      444        5    -0.61743    4.85865   -0.22143   12.65992
     206      444        5    -0.68302    2.01679   -3.88453   22.32896
     207      444        6    -0.84791    3.61867   -1.28699   22.50449
     208      444        5    -0.68302    5.05141   -4.25278   18.25286
     209      444        5    -0.61743    3.41061   -4.63891   16.75271
     210      444        5    -0.68302    6.65672    3.74314   14.38124
     211      444        5    -0.61743    4.87868    2.81814   13.34166
     212      444        5    -0.61743    3.82427   -1.52223   17.14094
     213      444        5    -0.68302    3.99192   -1.38006   19.38706
     214      444        6    -0.84791    1.83545   -3.54611   19.21618
     215      444        5    -0.68302   -3.93615    5.66431   12.29254
     216      444        5    -0.61743   -6.67044    0.50146   22.71136
     217      444        5    -0.68302    0.73216    5.60340   20.33488
     218      444        5    -0.61743    0.25193    3.66256   19.28517
     219      444        5    -0.61743   -3.73377    1.62931   23.08839
     220      444        5    -0.68302   -0.89187    5.29234   13.41935
     221      444        6    -0.84791   -2.49374    2.69488   13.24394
     222      444        5    -0.68302   -3.92644    5.66074   17.49546
     223      444        5    -0.61743   -2.28565    6.04698   18.99560
     224      444        5    -0.68302   -5.53179   -2.33524   21.36696
     225      444        5    -0.61743   -3.75381   -1.41032   22.40678
     226      444        5    -0.61743   -2.69938    2.93027   18.60737
     227      444        5    -0.68302   -2.86695    2.78790   16.36126
     228      444        6    -0.84791   -0.71051    4.95412   16.53226
     229      444        1     1.63648    1.56638   -7.13520   32.77268
     230      444        1     1.63648   -5.91820    1.59429   26.80832
     231      444        2     1.04278    3.19190   -2.06924   24.41277
     232      444        2     1.04278   -0.24480   -6.41850   29.22626
     233      444        2     1.04278   -7.54374   -3.47176   35.16835
     234      444        2     1.04278   -4.10704    0.87771   30.35486
     235      444        3     0.10065   -7.88047   -9.26329   35.62998
     236      444        3     0.10065   -3.41077   -7.00905   25.02778
     237      444        3     0.10065   -3.92928   -4.22451   28.27188
     238      444        3     0.10065   -5.72086   -3.06765   27.00267
     239      444        3     0.10065    0.92793   -5.46825   25.80782
     240      444        3     0.10065   -1.38169   -9.76797   33.50161
     241      444        3     0.45225    1.63464   -4.06998   34.43561
     242      444        3     0.45225    0.12110   -4.29810   34.01997
     243      444        3     0.10065    1.43813    2.55630   29.91336
     244      444        3     0.10065    3.02804    1.15426   28.60137
     245      444        3     0.10065    0.20204    1.01132   25.35440
     246      444        3     0.10065   -1.33858    2.48862   26.62040
     247      444        3     0.10065    2.53411   -3.43214   27.81989
     248      444        3     0.10065    3.32468   -3.64937   32.03995
     249      444        3     0.45225   -1.39757   -7.91636   31.11321
     250      444        3     0.45225   -1.53267   -6.39310   31.53446
     251      444        3     0.10065    3.55591    3.75689   23.83269
     252      444        3     0.10065   -0.94100    1.46816   34.55322
     253      444        3     0.10065   -0.42255   -1.31637   31.30912
     254      444        3     0.10065    1.36905   -2.47325   32.57833
     255      444        3     0.10065   -5.27983   -0.07269   33.77318
     256      444        3     0.10065   -2.94199    4.10931   26.07892
     257      444        3     0.45225   -5.98644   -1.47094   25.14539
     258      444        3     0.45225   -4.47292   -1.24281   25.56115
     259      444        3     0.10065   -5.78995   -8.09714   29.66764
     260      444        3     0.10065   -7.37989   -6.69514   30.97963
     261      444        3     0.10065   -4.55383   -6.55209   34.22624
     262      444        3     0.10065   -3.01327   -8.02947   32.96060
     263      444        3     0.10065   -6.88592   -2.10874   31.76111
     264      444        3     0.10065   -7.79238   -1.89154   27.54105
     265      444        3     0.45225   -2.95426    2.37556   28.46779
     266      444        3     0.45225   -2.81916    0.85227   28.04666
     267      444        4     0.70731    5.51394   -3.71467   24.48379
     268      444        4    -0.13001   -5.54786   -4.35683   25.26694
     269      444        4    -0.05868   -4.88066   -5.46400   24.71879
     270      444        4    -0.05868   -3.91409   -6.14164   25.45402
     271      444        4    -0.13001   -3.57186   -5.70174   26.74266
     272      444        4    -0.05868   -4.20692   -4.57059   27.27710
     273      444        4    -0.05868   -5.20042   -3.91303   26.55462
     274      444        4     0.70731   -2.52962   -6.44313   27.53033
     275      444        4     0.70731   -0.92663   -7.80496   35.40989
     276      444        4    -0.13001   -1.55795   -9.15253   35.59233
     277      444        4    -0.05868    0.78162   -6.12063   24.94782
     278      444        4    -0.05868   -1.72442  -10.05363   34.48137
     279      444        4     0.70731    1.89263   -8.29276   29.14034
     280      444        4    -0.13001   -0.04720    2.61841   28.35827
     281      444        4    -0.05868    1.18386    2.22635   28.90798
     282      444        4    -0.05868    2.06777    1.44246   28.17429
     283      444        4    -0.13001    1.72007    1.00630   26.88589
     284      444        4    -0.05868    0.47342    1.36211   26.34954
     285      444        4    -0.05868   -0.39666    2.17754   27.07012
     286      444        4     0.70731    2.68200    0.16110   26.10108
     287      444        4     0.70731    1.63619   -4.55022   30.13786
     288      444        4    -0.13001    2.80168   -3.62521   29.95113
     289      444        4    -0.05868    3.13694   -3.13725   28.67799
     290      444        4    -0.05868    3.57914   -3.25225   31.05935
     291      444        4     0.70731   -9.86574   -1.82627   35.09720
     292      444        4    -0.13001    1.19609   -1.18407   34.31406
     293      444        4    -0.05868    0.52890   -0.07691   34.86221
     294      444        4    -0.05868   -0.43765    0.60077   34.12698
     295      444        4    -0.13001   -0.78000    0.16082   32.83834
     296      444        4    -0.05868   -0.14486   -0.97027   32.30389
     297      444        4    -0.05868    0.84860   -1.62788   33.02638
     298      444        4     0.70731   -1.82213    0.90229   32.05067
     299      444        4     0.70731   -3.42521    2.26398   24.17111
     300      444        4    -0.13001   -2.79397    3.61159   23.98867
     301      444        4    -0.05868   -5.13351    0.57970   34.63318
     302      444        4    -0.05868   -2.61279    4.45111   25.09963
     303      444        4     0.70731   -6.24448    2.75185   30.44066
     304      444        4    -0.13001   -4.30457   -8.15914   31.22261
     305      444        4    -0.05868   -5.53572   -7.76724   30.67302
     306      444        4    -0.05868   -6.41960   -6.98331   31.40659
     307      444        4    -0.13001   -6.07192   -6.54719   32.69511
     308      444        4    -0.05868   -4.82527   -6.90299   33.23146
     309      444        4    -0.05868   -3.95517   -7.71840   32.51076
     310      444        4     0.70731   -7.03387   -5.70204   33.47992
     311      444        4     0.70731   -5.98795   -0.99073   29.44314
     312      444        4    -0.13001   -7.15353   -1.91562   29.62987
     313      444        4    -0.05868   -7.48874   -2.40366   30.90301
     314      444        4    -0.05868   -7.99120   -2.28867   28.52165
     315      444        5    -0.68302    2.32275   -7.73084   35.37211
     316      444        5    -0.61743    5.05703   -2.56797   24.95330
     317      444        5    -0.68302   -2.34563   -7.66986   27.32989
     318      444        5    -0.61743   -1.86543   -5.72901   28.37960
     319      444        5    -0.61743    2.12026   -3.69584   24.57627
     320      444        5    -0.68302   -0.72159   -7.35894   34.24531
     321      444        6    -0.84791    0.88029   -4.76141   34.42083
     322      444        5    -0.68302    2.31303   -7.72719   30.16920
     323      444        5    -0.61743    0.67222   -8.11333   28.66905
     324      444        5    -0.68302    3.91833    0.26873   26.29758
     325      444        5    -0.61743    2.14029   -0.65627   25.25800
     326      444        5    -0.61743    1.08589   -4.99664   29.05729
     327      444        5    -0.68302    1.25354   -4.85447   31.30340
     328      444        6    -0.84791   -0.90294   -7.02053   31.13252
     329      444        5    -0.68302   -6.67454    2.18990   24.20888
     330      444        5    -0.61743   -9.40882   -2.97295   34.62770
     331      444        5    -0.68302   -2.00622    2.12898   32.25122
     332      444        5    -0.61743   -2.48645    0.18814   31.20151
     333      444        5    -0.61743   -6.47215   -1.84510   35.00473
     334      444        5    -0.68302   -3.63026    1.81793   25.33569
     335      444        6    -0.84791   -5.23213   -0.77953   25.16029
     336      444        5    -0.68302   -6.66482    2.18632   29.41180
     337      444        5    -0.61743   -5.02403    2.57257   30.91195
     338      444        5    -0.68302   -8.27018   -5.80966   33.28330
     339      444        5    -0.61743   -6.49220   -4.88474   34.32312
     340      444        5    -0.61743   -5.43776   -0.54414   30.52371
     341      444        5    -0.68302   -5.60533   -0.68652   28.27760
     342      444        6    -0.84791   -3.44889    1.47971   28.44860
     343      444        1     1.63648    4.22277   11.64409    8.94000
     344      444        1     1.63648   -3.26181   20.37358    2.97563
     345      444        2     1.04278    5.84830   16.71004    0.58009
     346      444        2     1.04278    2.41159   12.36078    5.39358
     347      444        2     1.04278   -4.88735   15.30753   11.33566
     348      444        2     1.04278   -1.45065   19.65699    6.52217
     349      444        3     0.10065   -5.22408    9.51600   11.79730
     350      444        3     0.10065   -0.75438   11.77023    1.19509
     351      444        3     0.10065   -1.27289   14.55477    4.43920
     352      444        3     0.10065   -3.06447   15.71163    3.16999
     353      444        3     0.10065    3.58432   13.31104    1.97513
     354      444        3     0.10065    1.27470    9.01132    9.66892
     355      444        3     0.45225    4.29103   14.70931   10.60292
     356      444        3     0.45225    2.77749   14.48119   10.18728
     357      444        3     0.10065    4.09452   21.33558    6.08067
     358      444        3     0.10065    5.68443   19.93355    4.76868
     359      444        3     0.10065    2.85844   19.79060    1.52172
     360      444        3     0.10065    1.31781   21.26790    2.78771
     361      444        3     0.10065    5.19050   15.34715    3.98721
     362      444        3     0.10065    5.98107   15.12992    8.20726
     363      444        3     0.45225    1.25882   10.86293    7.28053
     364      444        3     0.45225    1.12372   12.38618    7.70177
     365      444        3     0.10065    6.21230   22.53617    0.00000
     366      444        3     0.10065    1.71539   20.24744   10.72054
     367      444        3     0.10065    2.23384   17.46291    7.47643
     368      444        3     0.10065    4.02544   16.30603    8.74564