Created on Tue Feb 06 15:41:07 2018 

        1488 atoms
        1728 bonds
        3024 angles
        2304 dihedrals
        1728 impropers

           6 atom types
           6 bond types
           8 angle types
           2 dihedral types
           1 improper types
           0.000000  43.672000 xlo xhi
           0.000000  26.485963 ylo yhi
           0.000000  34.586185 zlo zhi
          -0.044378  -0.016638 -19.531358 xy xz yz

Masses

    1   112.411000000 # Cd3+2
    2     1.007940000 # H_
    3    12.010700000 # C_R
    4    12.010700000 # C_1
    5    12.010700000 # C_2
    6    14.006700000 # N_2

Bond Coeffs

    1      155.778395        2.076045  # Cd3+2 N_2
    2      357.440381        1.081418  # H_ C_R
    3      462.655054        1.379256  # C_R C_R
    4      408.240118        1.438000  # C_1 C_2
    5      607.496018        1.385350  # C_1 N_2
    6      389.261715        1.461000  # C_2 C_R

Angle Coeffs

    1                      fourier       34.126796        0.343737        0.374972        0.281246 # N_2 Cd3+2 N_2
    2              cosine/periodic      117.010657              -1               3 # C_R C_R C_R
    3              cosine/periodic       76.817955              -1               3 # C_R C_R H_
    4              cosine/periodic       72.050887               1               1 # C_2 C_1 N_2
    5              cosine/periodic       91.274858              -1               3 # C_R C_2 C_1
    6              cosine/periodic       94.985221              -1               3 # C_1 C_2 C_1
    7              cosine/periodic      101.089243              -1               3 # C_R C_R C_2
    8              cosine/periodic       38.450196              -1               3 # Cd3+2 N_2 C_1

Dihedral Coeffs

    1        1.497136              -1               2 # C_R C_R C_R C_R
    2        0.555556              -1               2 # C_1 C_2 C_R C_R

Improper Coeffs

    1        2.000000        1.000000       -1.000000        0.000000               0 # C_R C_R C_R H_

Pair Coeffs

    1        0.228000        2.537280 # Cd3+2 Cd3+2
    2        0.044000        2.571134 # H_ H_
    3        0.105000        3.430851 # C_R C_R
    4        0.105000        3.430851 # C_1 C_1
    5        0.105000        3.430851 # C_2 C_2
    6        0.069000        3.260689 # N_2 N_2

Atoms

       1      444        1     1.09917    5.44311    6.68435    3.83411
       2      444        1     1.09917   16.36120    6.67279    3.83261
       3      444        1     1.09917    5.44761    0.06075    7.69646
       4      444        1     1.09917   16.36574    0.04924    7.69485
       5      444        2     0.10517    9.70105    6.39032    2.16094
       6      444        2     0.10517   20.62184    6.37937    2.16141
       7      444        2     0.10517    9.70930    5.37324    4.91320
       8      444        2     0.10517   20.62560    5.37685    4.92427
       9      444        2     0.10517    9.69774    8.26265    4.43383
      10      444        2     0.10517   20.62304    8.26033    4.43049
      11      444        2     0.10517    1.18056    6.93607    2.15887
      12      444        2     0.10517   12.09822    6.93871    2.15864
      13      444        2     0.10517    1.18283    7.98987    4.91239
      14      444        2     0.10517   12.09319    7.98408    4.91470
      15      444        2     0.10517    1.18545    5.10005    4.44686
      16      444        2     0.10517   12.10458    5.08982    4.43429
      17      444        2     0.10517    1.18691    0.35457    9.36709
      18      444        2     0.10517   12.10774    0.34341    9.36801
      19      444        2     0.10517    1.18321    1.35680    6.60469
      20      444        2     0.10517   12.09944    1.36023    6.61588
      21      444        2     0.10517    1.18572   -1.52674    7.09835
      22      444        2     0.10517   12.11107   -1.52903    7.09524
      23      444        2     0.10517    9.71056   -0.20499    9.37032
      24      444        2     0.10517   20.62819   -0.20245    9.37020
      25      444        2     0.10517    9.71559   -1.25040    6.61426
      26      444        2     0.10517   20.62596   -1.25633    6.61657
      27      444        2     0.10517    9.70416    1.64368    7.09478
      28      444        2     0.10517   20.62335    1.63360    7.08210
      29      444        3    -0.13049   10.23005    6.49317    1.21317
      30      444        3    -0.13049   21.14967    6.48724    1.21363
      31      444        4     0.44495    7.38786    5.84273    1.18976
      32      444        4     0.44495   18.30924    5.83048    1.19000
      33      444        3    -0.13049   10.23326    4.49267    5.28546
      34      444        3    -0.13049   21.15027    4.49441    5.29146
      35      444        4     0.44495    7.39240    4.80539    5.86697
      36      444        4     0.44495   18.30718    4.79719    5.86812
      37      444        3    -0.13049   10.22204    9.01921    5.01811
      38      444        3    -0.13049   21.14413    9.01788    5.01638
      39      444        4     0.44495    7.38433    9.37467    4.45482
      40      444        4     0.44495   18.30430    9.36274    4.45447
      41      444        3    -0.13049    0.65810    6.79740    1.21202
      42      444        3    -0.13049   11.57616    6.79870    1.21178
      43      444        4     0.44495    3.49676    7.46078    1.18285
      44      444        4     0.44495   14.41829    7.45120    1.18250
      45      444        3    -0.13049    0.65327    8.86714    5.28477
      46      444        3    -0.13049   11.56715    8.86382    5.28604
      47      444        4     0.44495    3.49561    8.57179    5.86628
      48      444        4     0.44495   14.41021    8.56162    5.86305
      49      444        3    -0.13049    0.65950    4.34032    5.02549
      50      444        3    -0.13049   11.57833    4.33481    5.01892
      51      444        4     0.44495    3.49930    3.98798    4.46842
      52      444        4     0.44495   14.41759    3.97652    4.46392
      53      444        3    -0.13049    0.65909    0.24638   10.31544
      54      444        3    -0.13049   11.57874    0.24055   10.31579
      55      444        4     0.44495    3.49952    0.90307   10.33908
      56      444        4     0.44495   14.42095    0.89102   10.33896
      57      444        3    -0.13049    0.65854    2.23917    6.23762
      58      444        3    -0.13049   11.57548    2.24126    6.24281
      59      444        4     0.44495    3.50165    1.93647    5.66095
      60      444        4     0.44495   14.41637    1.92811    5.66210
      61      444        3    -0.13049    0.66464   -2.28429    6.51246
      62      444        3    -0.13049   11.58677   -2.28559    6.51096
      63      444        4     0.44495    3.50449   -2.62895    7.07403
      64      444        4     0.44495   14.42450   -2.64096    7.07403
      65      444        3    -0.13049   10.23263   -0.06498   10.31717
      66      444        3    -0.13049   21.15067   -0.06372   10.31694
      67      444        4     0.44495    7.39054   -0.71768   10.34646
      68      444        4     0.44495   18.31201   -0.72709   10.34600
      69      444        3    -0.13049   10.24166   -2.13022    6.24304
      70      444        3    -0.13049   21.15549   -2.13352    6.24407
      71      444        4     0.44495    7.39858   -1.82802    5.66602
      72      444        4     0.44495   18.31317   -1.83828    5.66268
      73      444        3    -0.13049   10.23042    2.39867    6.51016
      74      444        3    -0.13049   21.14931    2.39332    6.50347
      75      444        4     0.44495    7.39115    2.75701    7.06527
      76      444        4     0.44495   18.30950    2.74565    7.06054
      77      444        5    -0.10645    8.10783    5.98552    0.00242
      78      444        5    -0.10645   19.02875    5.97624    0.00254
      79      444        3    -0.10645    9.51997    6.30898    0.00000
      80      444        3    -0.10645   20.43955    6.30359    0.00115
      81      444        5    -0.10645    8.10723    3.69534    6.32016
      82      444        5    -0.10645   19.02416    3.68753    6.31855
      83      444        3    -0.10645    9.51839    3.52903    6.03875
      84      444        3    -0.10645   20.43600    3.52525    6.03794
      85      444        5    -0.10645    8.11809   -2.93260    5.20660
      86      444        5    -0.10645   19.01311   10.30114    5.20545
      87      444        3    -0.10645    9.52944   -3.09536    5.48929
      88      444        3    -0.10645   20.42494   10.14286    5.48871
      89      444        5    -0.10645    2.78002    0.75742   11.52642
      90      444        5    -0.10645   13.70107    0.74817   11.52619
      91      444        3    -0.10645    1.36933    0.43074   11.52642
      92      444        3    -0.10645   12.28880    0.42568   11.52723
      93      444        5    -0.10645    2.79556   -3.56799    6.32351
      94      444        5    -0.10645   13.69058    9.66588    6.32235
      95      444        3    -0.10645    1.38377   -3.40971    6.04025
      96      444        3    -0.10645   12.27926    9.82861    6.03979
      97      444        5    -0.10645    2.78467    3.04608    5.21052
      98      444        5    -0.10645   13.70149    3.03818    5.20891
      99      444        3    -0.10645    1.37283    3.20840    5.49102
     100      444        3    -0.10645   12.29035    3.20446    5.49033
     101      444        6    -0.49638    6.80498    5.69436    2.20014
     102      444        6    -0.49638   17.72673    5.68094    2.20026
     103      444        6    -0.49638    6.81299    5.76252    5.50474
     104      444        6    -0.49638   17.72549    5.75408    5.50866
     105      444        6    -0.49638    6.80829    8.59243    3.79180
     106      444        6    -0.49638   17.73026    8.57778    3.79295
     107      444        6    -0.49638    4.07250    7.65119    2.19057
     108      444        6    -0.49638   14.99486    7.64216    2.18965
     109      444        6    -0.49638    4.08062    7.62023    5.49920
     110      444        6    -0.49638   14.99360    7.60950    5.49482
     111      444        6    -0.49638    4.07812    4.77518    3.81405
     112      444        6    -0.49638   14.99737    4.76157    3.80771
     113      444        6    -0.49638    4.08208    1.05268    9.32870
     114      444        6    -0.49638   15.00385    1.03921    9.32882
     115      444        6    -0.49638    4.08334    0.97964    6.02042
     116      444        6    -0.49638   14.99580    0.97102    6.02422
     117      444        6    -0.49638    4.07850   -1.84411    7.73578
     118      444        6    -0.49638   15.00052   -1.85859    7.73681
     119      444        6    -0.49638    6.81395   -0.90872    9.33931
     120      444        6    -0.49638   17.73636   -0.91760    9.33839
     121      444        6    -0.49638    6.81514   -0.87592    6.03425
     122      444        6    -0.49638   17.72817   -0.88618    6.02883
     123      444        6    -0.49638    6.81139    1.97202    7.72148
     124      444        6    -0.49638   17.73071    1.95840    7.71491
     125      444        1     1.09917    5.43757    0.17390   15.36284
     126      444        1     1.09917   16.35566    0.16233   15.36134
     127      444        1     1.09917    5.44206   -6.44970   19.22519
     128      444        1     1.09917   16.36019   -6.46121   19.22358
     129      444        2     0.10517    9.69550   -0.12014   13.68967
     130      444        2     0.10517   20.61629   -0.13108   13.69013
     131      444        2     0.10517    9.70376   -1.13721   16.44193
     132      444        2     0.10517   20.62005   -1.13360   16.45299
     133      444        2     0.10517    9.69220    1.75220   15.96256
     134      444        2     0.10517   20.61750    1.74987   15.95922
     135      444        2     0.10517    1.17501    0.42561   13.68760
     136      444        2     0.10517   12.09268    0.42826   13.68737
     137      444        2     0.10517    1.17728    1.47942   16.44112
     138      444        2     0.10517   12.08765    1.47363   16.44343
     139      444        2     0.10517    1.17991   -1.41041   15.97559
     140      444        2     0.10517   12.09904   -1.42063   15.96302
     141      444        2     0.10517    1.18136   -6.15588   20.89582
     142      444        2     0.10517   12.10220   -6.16705   20.89674
     143      444        2     0.10517    1.17766   -5.15365   18.13342
     144      444        2     0.10517   12.09390   -5.15022   18.14460
     145      444        2     0.10517    1.18017   -8.03719   18.62708
     146      444        2     0.10517   12.10552   -8.03948   18.62397
     147      444        2     0.10517    9.70502   -6.71544   20.89905
     148      444        2     0.10517   20.62264   -6.71290   20.89893
     149      444        2     0.10517    9.71005   -7.76085   18.14299
     150      444        2     0.10517   20.62041   -7.76679   18.14530
     151      444        2     0.10517    9.69862   -4.86677   18.62351
     152      444        2     0.10517   20.61781   -4.87686   18.61083
     153      444        3    -0.13049   10.22450   -0.01728   12.74190
     154      444        3    -0.13049   21.14412   -0.02321   12.74236
     155      444        4     0.44495    7.38231   -0.66772   12.71849
     156      444        4     0.44495   18.30370   -0.67997   12.71872
     157      444        3    -0.13049   10.22772   -2.01778   16.81419
     158      444        3    -0.13049   21.14472   -2.01604   16.82018
     159      444        4     0.44495    7.38685   -1.70507   17.39570
     160      444        4     0.44495   18.30163   -1.71326   17.39685
     161      444        3    -0.13049   10.21650    2.50875   16.54684
     162      444        3    -0.13049   21.13858    2.50743   16.54511
     163      444        4     0.44495    7.37879    2.86421   15.98354
     164      444        4     0.44495   18.29875    2.85229   15.98320
     165      444        3    -0.13049    0.65255    0.28695   12.74074
     166      444        3    -0.13049   11.57062    0.28825   12.74051
     167      444        4     0.44495    3.49121    0.95033   12.71158
     168      444        4     0.44495   14.41274    0.94075   12.71123
     169      444        3    -0.13049    0.64773    2.35668   16.81350
     170      444        3    -0.13049   11.56160    2.35337   16.81477
     171      444        4     0.44495    3.49007    2.06134   17.39501
     172      444        4     0.44495   14.40466    2.05116   17.39178
     173      444        3    -0.13049    0.65396   -2.17013   16.55422
     174      444        3    -0.13049   11.57278   -2.17564   16.54764
     175      444        4     0.44495    3.49376   -2.52248   15.99715
     176      444        4     0.44495   14.41205   -2.53394   15.99265
     177      444        3    -0.13049    0.65355   -6.26408   21.84417
     178      444        3    -0.13049   11.57320   -6.26990   21.84452
     179      444        4     0.44495    3.49398   -5.60738   21.86781
     180      444        4     0.44495   14.41540   -5.61943   21.86769
     181      444        3    -0.13049    0.65299   -4.27128   17.76635
     182      444        3    -0.13049   11.56994   -4.26919   17.77153
     183      444        4     0.44495    3.49611   -4.57398   17.18968
     184      444        4     0.44495   14.41082   -4.58234   17.19083
     185      444        3    -0.13049    0.65909   -8.79474   18.04119
     186      444        3    -0.13049   11.58122   -8.79604   18.03969
     187      444        4     0.44495    3.49894   -9.13940   18.60276
     188      444        4     0.44495   14.41895   -9.15141   18.60276
     189      444        3    -0.13049   10.22708   -6.57543   21.84590
     190      444        3    -0.13049   21.14512   -6.57417   21.84567
     191      444        4     0.44495    7.38500   -7.22813   21.87519
     192      444        4     0.44495   18.30646   -7.23754   21.87472
     193      444        3    -0.13049   10.23611   -8.64067   17.77177
     194      444        3    -0.13049   21.14995   -8.64397   17.77280
     195      444        4     0.44495    7.39304   -8.33848   17.19475
     196      444        4     0.44495   18.30763   -8.34873   17.19141
     197      444        3    -0.13049   10.22487   -4.11178   18.03889
     198      444        3    -0.13049   21.14376   -4.11713   18.03220
     199      444        4     0.44495    7.38560   -3.75344   18.59399
     200      444        4     0.44495   18.30396   -3.76480   18.58927
     201      444        5    -0.10645    8.10228   -0.52493   11.53115
     202      444        5    -0.10645   19.02320   -0.53421   11.53126
     203      444        3    -0.10645    9.51442   -0.20147   11.52873
     204      444        3    -0.10645   20.43400   -0.20686   11.52988
     205      444        5    -0.10645    8.10169   -2.81511   17.84889
     206      444        5    -0.10645   19.01861   -2.82293   17.84728
     207      444        3    -0.10645    9.51284   -2.98142   17.56748
     208      444        3    -0.10645   20.43046   -2.98521   17.56667
     209      444        5    -0.10645    8.11255   -9.44305   16.73533
     210      444        5    -0.10645   19.00757    3.79069   16.73418
     211      444        3    -0.10645    9.52390   -9.60581   17.01802
     212      444        3    -0.10645   20.41939    3.63241   17.01744
     213      444        5    -0.10645    2.77447   -5.75303   23.05515
     214      444        5    -0.10645   13.69552   -5.76228   23.05492
     215      444        3    -0.10645    1.36378   -6.07971   23.05515
     216      444        3    -0.10645   12.28325   -6.08478   23.05596
     217      444        5    -0.10645    2.79002  -10.07844   17.85224
     218      444        5    -0.10645   13.68504    3.15543   17.85108
     219      444        3    -0.10645    1.37822   -9.92016   17.56897
     220      444        3    -0.10645   12.27371    3.31815   17.56851
     221      444        5    -0.10645    2.77913   -3.46437   16.73925
     222      444        5    -0.10645   13.69594   -3.47227   16.73764
     223      444        3    -0.10645    1.36728   -3.30206   17.01975
     224      444        3    -0.10645   12.28481   -3.30599   17.01905
     225      444        6    -0.49638    6.79943   -0.81609   13.72887
     226      444        6    -0.49638   17.72119   -0.82952   13.72899
     227      444        6    -0.49638    6.80744   -0.74793   17.03347
     228      444        6    -0.49638   17.71995   -0.75637   17.03739
     229      444        6    -0.49638    6.80274    2.08197   15.32053
     230      444        6    -0.49638   17.72472    2.06733   15.32168
     231      444        6    -0.49638    4.06695    1.14074   13.71930
     232      444        6    -0.49638   14.98931    1.13171   13.71838
     233      444        6    -0.49638    4.07508    1.10978   17.02793
     234      444        6    -0.49638   14.98806    1.09905   17.02355
     235      444        6    -0.49638    4.07257   -1.73527   15.34278
     236      444        6    -0.49638   14.99183   -1.74888   15.33644
     237      444        6    -0.49638    4.07653   -5.45777   20.85743
     238      444        6    -0.49638   14.99831   -5.47124   20.85754
     239      444        6    -0.49638    4.07779   -5.53081   17.54915
     240      444        6    -0.49638   14.99026   -5.53943   17.55295
     241      444        6    -0.49638    4.07296   -8.35456   19.26450
     242      444        6    -0.49638   14.99498   -8.36904   19.26554
     243      444        6    -0.49638    6.80841   -7.41917   20.86804
     244      444        6    -0.49638   17.73081   -7.42805   20.86711
     245      444        6    -0.49638    6.80960   -7.38637   17.56298
     246      444        6    -0.49638   17.72262   -7.39664   17.55756
     247      444        6    -0.49638    6.80584   -4.53843   19.25021
     248      444        6    -0.49638   17.72517   -4.55205   19.24364
     249      444        1     1.09917    5.43202   -6.33656   26.89157
     250      444        1     1.09917   16.35011   -6.34812   26.89007
     251      444        1     1.09917    5.43652  -12.96015   30.75392
     252      444        1     1.09917   16.35465  -12.97166   30.75231
     253      444        2     0.10517    9.68995   -6.63059   25.21840
     254      444        2     0.10517   20.61074   -6.64154   25.21886
     255      444        2     0.10517    9.69821   -7.64767   27.97065
     256      444        2     0.10517   20.61451   -7.64405   27.98172
     257      444        2     0.10517    9.68665   -4.75826   27.49129
     258      444        2     0.10517   20.61195   -4.76058   27.48795
     259      444        2     0.10517    1.16946   -6.08484   25.21633
     260      444        2     0.10517   12.08713   -6.08219   25.21610
     261      444        2     0.10517    1.17174   -5.03103   27.96985
     262      444        2     0.10517   12.08210   -5.03683   27.97215
     263      444        2     0.10517    1.17436   -7.92086   27.50432
     264      444        2     0.10517   12.09349   -7.93108   27.49175
     265      444        2     0.10517    1.17582  -12.66633   32.42455
     266      444        2     0.10517   12.09665  -12.67750   32.42547
     267      444        2     0.10517    1.17212  -11.66410   29.66215
     268      444        2     0.10517   12.08835  -11.66067   29.67333
     269      444        2     0.10517    1.17463  -14.54764   30.15581
     270      444        2     0.10517   12.09997  -14.54994   30.15270
     271      444        2     0.10517    9.69947  -13.22589   32.42778
     272      444        2     0.10517   20.61710  -13.22335   32.42766
     273      444        2     0.10517    9.70450  -14.27130   29.67172
     274      444        2     0.10517   20.61486  -14.27724   29.67402
     275      444        2     0.10517    9.69307  -11.37723   30.15224
     276      444        2     0.10517   20.61226  -11.38731   30.13955
     277      444        3    -0.13049   10.21895   -6.52773   24.27062
     278      444        3    -0.13049   21.13858   -6.53366   24.27109
     279      444        4     0.44495    7.37677   -7.17818   24.24722
     280      444        4     0.44495   18.29815   -7.19042   24.24745
     281      444        3    -0.13049   10.22217   -8.52824   28.34292
     282      444        3    -0.13049   21.13918   -8.52650   28.34891
     283      444        4     0.44495    7.38131   -8.21552   28.92443
     284      444        4     0.44495   18.29609   -8.22372   28.92558
     285      444        3    -0.13049   10.21095   -4.00170   28.07557
     286      444        3    -0.13049   21.13304   -4.00303   28.07384
     287      444        4     0.44495    7.37324   -3.64624   27.51227
     288      444        4     0.44495   18.29321   -3.65816   27.51193
     289      444        3    -0.13049    0.64701   -6.22350   24.26947
     290      444        3    -0.13049   11.56507   -6.22221   24.26924
     291      444        4     0.44495    3.48566   -5.56012   24.24030
     292      444        4     0.44495   14.40720   -5.56970   24.23996
     293      444        3    -0.13049    0.64218   -4.15377   28.34223
     294      444        3    -0.13049   11.55606   -4.15708   28.34349
     295      444        4     0.44495    3.48452   -4.44911   28.92373
     296      444        4     0.44495   14.39911   -4.45929   28.92051
     297      444        3    -0.13049    0.64841   -8.68058   28.08294
     298      444        3    -0.13049   11.56724   -8.68609   28.07637
     299      444        4     0.44495    3.48821   -9.03293   27.52588
     300      444        4     0.44495   14.40650   -9.04439   27.52138
     301      444        3    -0.13049    0.64800  -12.77453   33.37290
     302      444        3    -0.13049   11.56765  -12.78035   33.37325
     303      444        4     0.44495    3.48843  -12.11783   33.39654
     304      444        4     0.44495   14.40986  -12.12989   33.39642
     305      444        3    -0.13049    0.64745  -10.78174   29.29508
     306      444        3    -0.13049   11.56439  -10.77965   29.30026
     307      444        4     0.44495    3.49056  -11.08444   28.71841
     308      444        4     0.44495   14.40527  -11.09279   28.71956
     309      444        3    -0.13049    0.65354  -15.30519   29.56992
     310      444        3    -0.13049   11.57568  -15.30649   29.56842
     311      444        4     0.44495    3.49340  -15.64985   30.13148
     312      444        4     0.44495   14.41340  -15.66186   30.13148
     313      444        3    -0.13049   10.22153  -13.08588   33.37463
     314      444        3    -0.13049   21.13958  -13.08463   33.37440
     315      444        4     0.44495    7.37945  -13.73858   33.40391
     316      444        4     0.44495   18.30092  -13.74799   33.40345
     317      444        3    -0.13049   10.23057  -15.15113   29.30049
     318      444        3    -0.13049   21.14440  -15.15443   29.30153
     319      444        4     0.44495    7.38749  -14.84893   28.72348
     320      444        4     0.44495   18.30208  -14.85918   28.72014
     321      444        3    -0.13049   10.21932  -10.62223   29.56761
     322      444        3    -0.13049   21.13822  -10.62758   29.56093
     323      444        4     0.44495    7.38006  -10.26390   30.12272
     324      444        4     0.44495   18.29841  -10.27525   30.11800
     325      444        5    -0.10645    8.09674   -7.03539   23.05988
     326      444        5    -0.10645   19.01766   -7.04467   23.05999
     327      444        3    -0.10645    9.50888   -6.71192   23.05746
     328      444        3    -0.10645   20.42846   -6.71731   23.05861
     329      444        5    -0.10645    8.09614   -9.32556   29.37762
     330      444        5    -0.10645   19.01307   -9.33338   29.37601
     331      444        3    -0.10645    9.50730   -9.49188   29.09620
     332      444        3    -0.10645   20.42491   -9.49566   29.09540
     333      444        5    -0.10645    8.10700  -15.95350   28.26406
     334      444        5    -0.10645   19.00202   -2.71976   28.26291
     335      444        3    -0.10645    9.51835  -16.11626   28.54675
     336      444        3    -0.10645   20.41384   -2.87804   28.54617
     337      444        5    -0.10645    2.76893  -12.26349   34.58388
     338      444        5    -0.10645   13.68998  -12.27273   34.58365
     339      444        3    -0.10645    1.35823  -12.59016   34.58388
     340      444        3    -0.10645   12.27770  -12.59523   34.58469
     341      444        5    -0.10645    2.78447  -16.58890   29.38096
     342      444        5    -0.10645   13.67949   -3.35502   29.37981
     343      444        3    -0.10645    1.37267  -16.43062   29.09770
     344      444        3    -0.10645   12.26817   -3.19230   29.09724
     345      444        5    -0.10645    2.77358   -9.97483   28.26798
     346      444        5    -0.10645   13.69040   -9.98272   28.26637
     347      444        3    -0.10645    1.36174   -9.81251   28.54847
     348      444        3    -0.10645   12.27926   -9.81645   28.54778
     349      444        6    -0.49638    6.79388   -7.32654   25.25760
     350      444        6    -0.49638   17.71564   -7.33997   25.25771
     351      444        6    -0.49638    6.80189   -7.25839   28.56219
     352      444        6    -0.49638   17.71440   -7.26682   28.56611
     353      444        6    -0.49638    6.79719   -4.42848   26.84926
     354      444        6    -0.49638   17.71917   -4.44313   26.85041
     355      444        6    -0.49638    4.06140   -5.36972   25.24803
     356      444        6    -0.49638   14.98377   -5.37874   25.24711
     357      444        6    -0.49638    4.06953   -5.40068   28.55666
     358      444        6    -0.49638   14.98251   -5.41140   28.55228
     359      444        6    -0.49638    4.06703   -8.24573   26.87151
     360      444        6    -0.49638   14.98628   -8.25933   26.86516
     361      444        6    -0.49638    4.07098  -11.96823   32.38616
     362      444        6    -0.49638   14.99276  -11.98169   32.38627
     363      444        6    -0.49638    4.07225  -12.04126   29.07787
     364      444        6    -0.49638   14.98471  -12.04989   29.08168
     365      444        6    -0.49638    4.06741  -14.86502   30.79323
     366      444        6    -0.49638   14.98943  -14.87949   30.79427
     367      444        6    -0.49638    6.80286  -13.92962   32.39676
     368      444        6    -0.49638   17.72527  -13.93850   32.39584
     369      444        6    -0.49638    6.80405  -13.89683   29.09171
     370      444        6    -0.49638   17.71707  -13.90709   29.08629
     371      444        6    -0.49638    6.80030  -11.04888   30.77894
     372      444        6    -0.49638   17.71962  -11.06251   30.77237
     373      444        1     1.09917    5.42093   19.92733    3.83411
     374      444        1     1.09917   16.33901   19.91577    3.83261
     375      444        1     1.09917    5.42542   13.30373    7.69646
     376      444        1     1.09917   16.34355   13.29222    7.69485
     377      444        2     0.10517    9.67886   19.63330    2.16094
     378      444        2     0.10517   20.59965   19.62235    2.16141
     379      444        2     0.10517    9.68711   18.61622    4.91320
     380      444        2     0.10517   20.60341   18.61984    4.92427
     381      444        2     0.10517    9.67555   21.50563    4.43383
     382      444        2     0.10517   20.60086   21.50331    4.43049
     383      444        2     0.10517    1.15837   20.17905    2.15887
     384      444        2     0.10517   12.07604   20.18169    2.15864