Created on Tue Feb 06 15:28:44 2018 

        1152 atoms
        1344 bonds
        2304 angles
        2688 dihedrals
        1728 impropers

           6 atom types
           8 bond types
          12 angle types
           4 dihedral types
           1 improper types
           0.000000  28.616000 xlo xhi
           0.000000  28.291487 ylo yhi
           0.000000  28.293522 zlo zhi
          14.273090  14.273497   0.002300 xy xz yz

Masses

    1    40.078000000 # Ca6+2
    2   112.411000000 # Cd3+2
    3     1.007940000 # H_
    4    12.010700000 # C_R
    5    15.999400000 # O_R
    6    15.999400000 # O_3_z

Bond Coeffs

    1      133.916156        2.302728  # Ca6+2 O_R
    2      147.192711        2.045725  # Cd3+2 O_R
    3      850.878848        0.861362  # H_ O_3_z
    4      357.440381        1.081418  # H_ C_R
    5      646.680887        1.311940  # C_R O_R
    6      391.669513        1.458000  # C_R C_R
    7      462.655054        1.379256  # C_R C_R
    8      769.269794        1.238182  # C_R O_3_z

Angle Coeffs

    1              cosine/periodic       28.776304               1               4 # O_R Ca6+2 O_R
    2                      fourier       30.023701        0.343737        0.374972        0.281246 # O_R Cd3+2 O_R
    3              cosine/periodic      217.450257              -1               3 # O_R C_R O_R
    4              cosine/periodic      137.761490              -1               3 # O_R C_R C_R
    5              cosine/periodic      101.626578              -1               3 # C_R C_R C_R
    6              cosine/periodic      117.010657              -1               3 # C_R C_R C_R
    7              cosine/periodic       76.817955              -1               3 # H_ C_R C_R
    8              cosine/periodic      182.844282              -1               3 # C_R C_R O_3_z
    9              cosine/periodic       14.550792              -1               3 # Ca6+2 O_R Cd3+2
   10              cosine/periodic       40.137065              -1               3 # Ca6+2 O_R C_R
   11              cosine/periodic       45.673393              -1               3 # Cd3+2 O_R C_R
   12                      fourier      112.234474        1.898490        2.651251        0.799497 # H_ O_3_z C_R

Dihedral Coeffs

    1        1.497136              -1               2 # O_R C_R O_R Cd3+2
    2        0.555556              -1               2 # O_R C_R C_R C_R
    3        2.245703              -1               2 # O_R C_R O_R Cd3+2
    4        0.833333               1               2 # C_R C_R O_3_z H_

Improper Coeffs

    1        2.000000        1.000000       -1.000000        0.000000               0 # C_R C_R O_R O_R

Pair Coeffs

    1        0.238000        3.028165 # Ca6+2 Ca6+2
    2        0.228000        2.537280 # Cd3+2 Cd3+2
    3        0.044000        2.571134 # H_ H_
    4        0.105000        3.430851 # C_R C_R
    5        0.060000        3.118146 # O_R O_R
    6        0.060000        3.118146 # O_3_z O_3_z

Atoms

       1      444        1     1.67025   17.85583   14.13973    6.07816
       2      444        1     1.67025   25.01021   14.14077    8.05601
       3      444        1     1.67025   10.70223    6.08081   14.13898
       4      444        1     1.67025   17.85653    8.05810   14.13969
       5      444        2     1.08508    7.14438    0.37934    7.07253
       6      444        2     1.08508   21.43142   13.77214    7.07013
       7      444        2     1.08508   14.27700    7.07294   13.77116
       8      444        2     1.08508   14.29840    7.07388    0.37800
       9      444        3     0.38772   13.14350    4.85014    3.71268
      10      444        3     0.11467   10.92580    2.92746    5.67101
      11      444        3     0.11467   11.35719    5.71167    2.43536
      12      444        3     0.11467    7.50625    3.94796    3.19915
      13      444        3     0.38772   13.12198    9.30351   10.42715
      14      444        3     0.11467   10.89822   11.21906    8.46698
      15      444        3     0.11467   11.34107    8.44203   11.70644
      16      444        3     0.11467   21.79400   10.20023   10.94988
      17      444        3     0.38772    8.29325    3.72916    9.27547
      18      444        3     0.11467   10.51191    5.67949   11.20494
      19      444        3     0.11467   10.07733    2.44593    8.41888
      20      444        3     0.11467   13.92144    3.18491   10.20745
      21      444        3     0.38772    8.28852   10.43726    4.83338
      22      444        3     0.11467   10.51052    8.47340    2.91989
      23      444        3     0.11467   10.07231   11.71461    5.69619
      24      444        3     0.11467   13.93079   10.93877    3.95331
      25      444        3     0.38772   20.27611   10.42764    9.30178
      26      444        3     0.11467   18.05205    8.46843   11.21838
      27      444        3     0.11467   18.49505   11.70613    8.43939
      28      444        3     0.11467   14.64033   10.95129   10.19854
      29      444        3     0.38772    5.99009    3.71374    4.84909
      30      444        3     0.11467   18.08054    5.67203    2.92583
      31      444        3     0.11467    4.11009    2.43679    5.71076
      32      444        3     0.11467   14.66066    3.20099    3.94695
      33      444        3     0.38772   15.44316    4.83452   10.43691
      34      444        3     0.11467   17.66517    2.92164    8.47278
      35      444        3     0.11467   17.22695    5.69790   11.71380
      36      444        3     0.11467   21.08405    3.95492   10.93545
      37      444        3     0.38772   15.44709    9.27603    3.72767
      38      444        3     0.11467   17.66582   11.20572    5.67780
      39      444        3     0.11467   17.23128    8.41915    2.44456
      40      444        3     0.11467    6.75558   10.20800    3.18302
      41      444        4     0.73666    8.28451    2.35875    5.30277
      42      444        4     0.73666    8.78660    5.71627    1.61160
      43      444        4    -0.12398    9.11998    3.30395    4.50886
      44      444        4    -0.14019   10.48274    3.43870    4.81570
      45      444        4     0.32882   11.30395    4.29076    4.06267
      46      444        4    -0.14019   10.73706    5.02923    3.01411
      47      444        4    -0.12398    9.37493    4.89803    2.71406
      48      444        4    -0.14019    8.55963    4.03278    3.45209
      49      444        4     0.73666   22.56644   11.78684    8.84017
      50      444        4     0.73666   23.08054    8.43177   12.53417
      51      444        4    -0.12398   23.40333   10.84395    9.63394
      52      444        4    -0.14019   10.45835   10.71036    9.32554
      53      444        4     0.32882   11.28267    9.86145   10.07844
      54      444        4    -0.14019   10.71863    9.12294   11.12841
      55      444        4    -0.12398   23.66479    9.25216   11.43101
      56      444        4    -0.14019   22.84682   10.11625   10.69439
      57      444        4     0.73666   13.14768    5.29567   11.78878
      58      444        4     0.73666   12.64369    1.60832    8.42807
      59      444        4    -0.12398   12.31213    4.50497   10.84080
      60      444        4    -0.14019   10.95226    4.82065   10.69721
      61      444        4     0.32882   10.13155    4.07272    9.84006
      62      444        4    -0.14019   10.69613    3.02023    9.10486
      63      444        4    -0.12398   12.05591    2.71159    9.24547
      64      444        4    -0.14019   12.87022    3.44431   10.11607
      65      444        4     0.73666   13.15347    8.83721    2.36010
      66      444        4     0.73666   12.64345   12.53341    5.71289
      67      444        4    -0.12398   12.31660    9.63271    3.30284
      68      444        4    -0.14019   10.95270    9.32877    3.43200
      69      444        4     0.32882   10.12903   10.08406    4.27954
      70      444        4    -0.14019   10.69477   11.13298    5.01842
      71      444        4    -0.12398   12.05815   11.43006    4.89351
      72      444        4    -0.14019   12.87624   10.68898    4.03338
      73      444        4     0.73666   15.41233    8.84240   11.78567
      74      444        4     0.73666   15.92679   12.53393    8.42864
      75      444        4    -0.12398   16.25008    9.63651   10.84278
      76      444        4    -0.14019   17.61230    9.32679   10.70938
      77      444        4     0.32882   18.43674   10.07935    9.86015
      78      444        4    -0.14019   17.87262   11.12866    9.12070
      79      444        4    -0.12398   16.51069   11.43136    9.24915
      80      444        4    -0.14019   15.69309   10.69556   10.11451
      81      444        4     0.73666   15.43858    5.30418    2.35685
      82      444        4     0.73666   15.93975    1.61328    5.71388
      83      444        4    -0.12398   16.27448    4.51037    3.30270
      84      444        4    -0.14019   17.63731    4.81691    3.43738
      85      444        4     0.32882   18.45838    4.06407    4.28972
      86      444        4    -0.14019   17.89135    3.01556    5.02832
      87      444        4    -0.12398   16.52877    2.71566    4.89619
      88      444        4    -0.14019   15.71402    3.45377    4.03169
      89      444        4     0.73666    6.00034    2.36160    8.83663
      90      444        4     0.73666   19.79774    5.71482   12.53262
      91      444        4    -0.12398   19.47131    3.30442    9.63211
      92      444        4    -0.14019   18.10680    3.43362    9.32696
      93      444        4     0.32882   17.28380    4.28124   10.08339
      94      444        4    -0.14019   17.84953    5.02011   11.13237
      95      444        4    -0.12398   19.21285    4.89516   11.42945
      96      444        4    -0.14019   20.03089    4.03492   10.68844
      97      444        4     0.73666   20.30167   11.78938    5.29414
      98      444        4     0.73666    5.49052    8.42928    1.60651
      99      444        4    -0.12398   19.46623   10.84131    4.50362
     100      444        4    -0.14019   18.10628   10.69781    4.81909
     101      444        4     0.32882   17.28557    9.84059    4.07115
     102      444        4    -0.14019   17.85065    9.10612    3.01878
     103      444        4    -0.12398   19.20995    9.24589    2.71010
     104      444        4    -0.14019   20.02426   10.11654    3.44290
     105      444        5    -0.78662    8.90928    1.37502    5.89368
     106      444        5    -0.56571    7.03683    2.46945    5.41977
     107      444        5    -0.61745    7.63549    5.43734    1.15947
     108      444        5    -0.76398    9.48155    6.69973    1.16117
     109      444        6    -0.50924   12.60941    4.36559    4.40431
     110      444        5    -0.78662   23.19019   12.77139    8.24883
     111      444        5    -0.56571   21.31921   11.67385    8.72332
     112      444        5    -0.61745   21.93345    8.71348   12.99507
     113      444        5    -0.76398   23.77524    7.44445   12.97541
     114      444        6    -0.50924   12.58791    9.78871    9.73594
     115      444        5    -0.78662   12.52141    5.88942   12.77014
     116      444        5    -0.56571   14.39577    5.40779   11.68140
     117      444        5    -0.61745   13.79292    1.15305    8.70988
     118      444        5    -0.76398   11.95097    1.16157    7.44162
     119      444        6    -0.50924    8.82899    4.42316    9.75447
     120      444        5    -0.78662   12.53087    8.25011    1.37266
     121      444        5    -0.56571   14.40033    8.71620    2.47526
     122      444        5    -0.61745   13.79374   12.98837    5.43533
     123      444        5    -0.76398   11.94609   12.98226    6.69538
     124      444        6    -0.50924    8.82271    9.74496    4.34985
     125      444        5    -0.78662   16.03639    8.25020   12.77014
     126      444        5    -0.56571   14.16515    8.72682   11.67405
     127      444        5    -0.61745   14.77889   12.99444    8.70875
     128      444        5    -0.76398   16.62177   12.97501    7.44134
     129      444        6    -0.50924   19.74217    9.73724    9.78829
     130      444        5    -0.78662   16.06343    5.89490    1.37351
     131      444        5    -0.56571   14.19130    5.42118    2.46847
     132      444        5    -0.61745   14.78889    1.16191    5.43519
     133      444        5    -0.76398   16.63429    1.16174    6.69835
     134      444        6    -0.50924    5.45600    4.40562    4.36470
     135      444        5    -0.78662    5.37734    1.37434    8.24898
     136      444        5    -0.56571    7.24716    2.47657    8.71554
     137      444        5    -0.61745   20.94833    5.43817   12.98772
     138      444        5    -0.76398   19.09977    6.69696   12.98135
     139      444        6    -0.50924   15.97758    4.35171    9.74429
     140      444        5    -0.78662   19.67554   12.77174    5.88633
     141      444        5    -0.56571   21.54965   11.68137    5.40774
     142      444        5    -0.61745    6.63927    8.71267    1.15098
     143      444        5    -0.76398    4.79873    7.44196    1.15862
     144      444        6    -0.50924   15.98299    9.75514    4.42157
     145      444        1     1.67025   24.99258   14.14088   20.22492
     146      444        1     1.67025   32.14696   14.14192   22.20278
     147      444        1     1.67025   17.83898    6.08196   28.28574
     148      444        1     1.67025   24.99328    8.05925   28.28645
     149      444        2     1.08508   14.28113    0.38049   21.21929
     150      444        2     1.08508   28.56817   13.77329   21.21689
     151      444        2     1.08508   21.41375    7.07409   27.91793
     152      444        2     1.08508   21.43515    7.07503   14.52476
     153      444        3     0.38772   20.28025    4.85129   17.85944
     154      444        3     0.11467   18.06255    2.92861   19.81777
     155      444        3     0.11467   18.49394    5.71282   16.58213
     156      444        3     0.11467   14.64300    3.94911   17.34591
     157      444        3     0.38772   20.25873    9.30466   24.57391
     158      444        3     0.11467   18.03496   11.22021   22.61374
     159      444        3     0.11467   18.47782    8.44318   25.85321
     160      444        3     0.11467   28.93075   10.20138   25.09664
     161      444        3     0.38772   15.43000    3.73031   23.42223
     162      444        3     0.11467   17.64865    5.68064   25.35170
     163      444        3     0.11467   17.21407    2.44708   22.56564
     164      444        3     0.11467   21.05819    3.18606   24.35421
     165      444        3     0.38772   15.42527   10.43841   18.98014
     166      444        3     0.11467   17.64727    8.47455   17.06665
     167      444        3     0.11467   17.20905   11.71576   19.84295
     168      444        3     0.11467   21.06754   10.93992   18.10007
     169      444        3     0.38772   27.41286   10.42879   23.44854
     170      444        3     0.11467   25.18880    8.46958   25.36514
     171      444        3     0.11467   25.63179   11.70728   22.58615
     172      444        3     0.11467   21.77708   10.95244   24.34530
     173      444        3     0.38772   13.12684    3.71489   18.99585
     174      444        3     0.11467   25.21729    5.67318   17.07259
     175      444        3     0.11467   11.24684    2.43794   19.85753
     176      444        3     0.11467   21.79741    3.20214   18.09371
     177      444        3     0.38772   22.57990    4.83567   24.58368
     178      444        3     0.11467   24.80192    2.92279   22.61954
     179      444        3     0.11467   24.36370    5.69905   25.86056
     180      444        3     0.11467   28.22079    3.95607   25.08221
     181      444        3     0.38772   22.58384    9.27719   17.87443
     182      444        3     0.11467   24.80257   11.20687   19.82456
     183      444        3     0.11467   24.36802    8.42030   16.59132
     184      444        3     0.11467   13.89233   10.20915   17.32978
     185      444        4     0.73666   15.42126    2.35990   19.44953
     186      444        4     0.73666   15.92335    5.71742   15.75836
     187      444        4    -0.12398   16.25673    3.30510   18.65562
     188      444        4    -0.14019   17.61948    3.43985   18.96246
     189      444        4     0.32882   18.44069    4.29191   18.20943
     190      444        4    -0.14019   17.87381    5.03038   17.16087
     191      444        4    -0.12398   16.51168    4.89918   16.86082
     192      444        4    -0.14019   15.69638    4.03393   17.59885
     193      444        4     0.73666   29.70318   11.78799   22.98693
     194      444        4     0.73666   30.21729    8.43292   26.68093
     195      444        4    -0.12398   30.54008   10.84510   23.78071
     196      444        4    -0.14019   17.59510   10.71151   23.47231
     197      444        4     0.32882   18.41942    9.86260   24.22520
     198      444        4    -0.14019   17.85538    9.12409   25.27517
     199      444        4    -0.12398   30.80153    9.25331   25.57777
     200      444        4    -0.14019   29.98357   10.11740   24.84115
     201      444        4     0.73666   20.28443    5.29682   25.93554
     202      444        4     0.73666   19.78044    1.60947   22.57484
     203      444        4    -0.12398   19.44888    4.50612   24.98757
     204      444        4    -0.14019   18.08901    4.82180   24.84398
     205      444        4     0.32882   17.26830    4.07387   23.98682
     206      444        4    -0.14019   17.83287    3.02138   23.25162
     207      444        4    -0.12398   19.19266    2.71274   23.39224
     208      444        4    -0.14019   20.00697    3.44546   24.26283
     209      444        4     0.73666   20.29022    8.83836   16.50687
     210      444        4     0.73666   19.78019   12.53456   19.85965
     211      444        4    -0.12398   19.45335    9.63386   17.44961
     212      444        4    -0.14019   18.08945    9.32992   17.57877
     213      444        4     0.32882   17.26578   10.08521   18.42630
     214      444        4    -0.14019   17.83152   11.13413   19.16518
     215      444        4    -0.12398   19.19490   11.43121   19.04027
     216      444        4    -0.14019   20.01299   10.69013   18.18014
     217      444        4     0.73666   22.54908    8.84355   25.93243
     218      444        4     0.73666   23.06354   12.53508   22.57540
     219      444        4    -0.12398   23.38683    9.63766   24.98955
     220      444        4    -0.14019   24.74905    9.32794   24.85614
     221      444        4     0.32882   25.57349   10.08050   24.00691
     222      444        4    -0.14019   25.00937   11.12981   23.26746
     223      444        4    -0.12398   23.64743   11.43251   23.39591
     224      444        4    -0.14019   22.82984   10.69671   24.26127
     225      444        4     0.73666   22.57533    5.30533   16.50361
     226      444        4     0.73666   23.07650    1.61443   19.86064
     227      444        4    -0.12398   23.41123    4.51152   17.44946
     228      444        4    -0.14019   24.77406    4.81806   17.58414
     229      444        4     0.32882   25.59513    4.06522   18.43648
     230      444        4    -0.14019   25.02810    3.01671   19.17509
     231      444        4    -0.12398   23.66552    2.71681   19.04295
     232      444        4    -0.14019   22.85077    3.45492   18.17845
     233      444        4     0.73666   13.13709    2.36275   22.98339
     234      444        4     0.73666   26.93449    5.71597   26.67938
     235      444        4    -0.12398   26.60806    3.30557   23.77887
     236      444        4    -0.14019   25.24355    3.43477   23.47372
     237      444        4     0.32882   24.42055    4.28239   24.23015
     238      444        4    -0.14019   24.98628    5.02126   25.27913
     239      444        4    -0.12398   26.34960    4.89631   25.57621
     240      444        4    -0.14019   27.16764    4.03607   24.83520
     241      444        4     0.73666   27.43841   11.79053   19.44090
     242      444        4     0.73666   12.62727    8.43043   15.75327
     243      444        4    -0.12398   26.60298   10.84246   18.65038
     244      444        4    -0.14019   25.24302   10.69896   18.96586
     245      444        4     0.32882   24.42232    9.84174   18.21792
     246      444        4    -0.14019   24.98740    9.10727   17.16554
     247      444        4    -0.12398   26.34670    9.24704   16.85686
     248      444        4    -0.14019   27.16100   10.11769   17.58966
     249      444        5    -0.78662   16.04603    1.37617   20.04044
     250      444        5    -0.56571   14.17358    2.47060   19.56653
     251      444        5    -0.61745   14.77224    5.43849   15.30623
     252      444        5    -0.76398   16.61830    6.70088   15.30793
     253      444        6    -0.50924   19.74616    4.36674   18.55107
     254      444        5    -0.78662   30.32693   12.77254   22.39560
     255      444        5    -0.56571   28.45596   11.67500   22.87008
     256      444        5    -0.61745   29.07020    8.71463   27.14183
     257      444        5    -0.76398   30.91199    7.44560   27.12217
     258      444        6    -0.50924   19.72466    9.78986   23.88270
     259      444        5    -0.78662   19.65816    5.89057   26.91690
     260      444        5    -0.56571   21.53252    5.40894   25.82817
     261      444        5    -0.61745   20.92966    1.15420   22.85664
     262      444        5    -0.76398   19.08771    1.16272   21.58838
     263      444        6    -0.50924   15.96574    4.42431   23.90124
     264      444        5    -0.78662   19.66762    8.25126   15.51942
     265      444        5    -0.56571   21.53708    8.71735   16.62202
     266      444        5    -0.61745   20.93049   12.98952   19.58209
     267      444        5    -0.76398   19.08284   12.98341   20.84214
     268      444        6    -0.50924   15.95946    9.74611   18.49661
     269      444        5    -0.78662   23.17314    8.25135   26.91690
     270      444        5    -0.56571   21.30190    8.72797   25.82081
     271      444        5    -0.61745   21.91563   12.99559   22.85551
     272      444        5    -0.76398   23.75851   12.97616   21.58810
     273      444        6    -0.50924   26.87892    9.73839   23.93505
     274      444        5    -0.78662   23.20018    5.89605   15.52027
     275      444        5    -0.56571   21.32805    5.42233   16.61523
     276      444        5    -0.61745   21.92564    1.16306   19.58195
     277      444        5    -0.76398   23.77104    1.16289   20.84511
     278      444        6    -0.50924   12.59275    4.40677   18.51146
     279      444        5    -0.78662   12.51409    1.37549   22.39574
     280      444        5    -0.56571   14.38391    2.47772   22.86230
     281      444        5    -0.61745   28.08508    5.43932   27.13448
     282      444        5    -0.76398   26.23652    6.69811   27.12811
     283      444        6    -0.50924   23.11432    4.35286   23.89105
     284      444        5    -0.78662   26.81229   12.77289   20.03309
     285      444        5    -0.56571   28.68640   11.68252   19.55450
     286      444        5    -0.61745   13.77602    8.71382   15.29774
     287      444        5    -0.76398   11.93548    7.44311   15.30538
     288      444        6    -0.50924   23.11973    9.75629   18.56833
     289      444        1     1.67025   24.99238   28.28547    6.07816
     290      444        1     1.67025   32.14676   28.28651    8.05601
     291      444        1     1.67025   17.83877   20.22655   14.13898
     292      444        1     1.67025   24.99308   22.20384   14.13969
     293      444        2     1.08508   14.28092   14.52509    7.07253
     294      444        2     1.08508   28.56796   27.91788    7.07013
     295      444        2     1.08508   21.41355   21.21869   13.77116
     296      444        2     1.08508   21.43495   21.21962    0.37800
     297      444        3     0.38772   20.28005   18.99589    3.71268
     298      444        3     0.11467   18.06234   17.07320    5.67101
     299      444        3     0.11467   18.49374   19.85741    2.43536
     300      444        3     0.11467   14.64280   18.09370    3.19915
     301      444        3     0.38772   20.25853   23.44926   10.42715
     302      444        3     0.11467   18.03476   25.36480    8.46698
     303      444        3     0.11467   18.47761   22.58777   11.70644
     304      444        3     0.11467   28.93055   24.34597   10.94988
     305      444        3     0.38772   15.42980   17.87491    9.27547
     306      444        3     0.11467   17.64845   19.82524   11.20494
     307      444        3     0.11467   17.21387   16.59168    8.41888
     308      444        3     0.11467   21.05798   17.33065   10.20745
     309      444        3     0.38772   15.42507   24.58301    4.83338
     310      444        3     0.11467   17.64706   22.61914    2.91989
     311      444        3     0.11467   17.20885   25.86035    5.69619
     312      444        3     0.11467   21.06734   25.08452    3.95331
     313      444        3     0.38772   27.41265   24.57338    9.30178
     314      444        3     0.11467   25.18859   22.61417   11.21838
     315      444        3     0.11467   25.63159   25.85188    8.43939
     316      444        3     0.11467   21.77688   25.09703   10.19854
     317      444        3     0.38772   13.12664   17.85948    4.84909
     318      444        3     0.11467   25.21708   19.81777    2.92583
     319      444        3     0.11467   11.24663   16.58253    5.71076
     320      444        3     0.11467   21.79720   17.34674    3.94695
     321      444        3     0.38772   22.57970   18.98026   10.43691
     322      444        3     0.11467   24.80172   17.06739    8.47278
     323      444        3     0.11467   24.36350   19.84364   11.71380
     324      444        3     0.11467   28.22059   18.10067   10.93545
     325      444        3     0.38772   22.58364   23.42178    3.72767
     326      444        3     0.11467   24.80236   25.35146    5.67780
     327      444        3     0.11467   24.36782   22.56489    2.44456
     328      444        3     0.11467   13.89213   24.35374    3.18302
     329      444        4     0.73666   15.42106   16.50450    5.30277
     330      444        4     0.73666   15.92315   19.86201    1.61160
     331      444        4    -0.12398   16.25653   17.44969    4.50886
     332      444        4    -0.14019   17.61928   17.58444    4.81570
     333      444        4     0.32882   18.44049   18.43651    4.06267
     334      444        4    -0.14019   17.87360   19.17497    3.01411
     335      444        4    -0.12398   16.51147   19.04377    2.71406
     336      444        4    -0.14019   15.69618   18.17852    3.45209
     337      444        4     0.73666   29.70298   25.93258    8.84017
     338      444        4     0.73666   30.21709   22.57751   12.53417
     339      444        4    -0.12398   30.53988   24.98969    9.63394
     340      444        4    -0.14019   17.59490   24.85610    9.32554
     341      444        4     0.32882   18.41921   24.00719   10.07844
     342      444        4    -0.14019   17.85517   23.26869   11.12841
     343      444        4    -0.12398   30.80133   23.39790   11.43101
     344      444        4    -0.14019   29.98337   24.26199   10.69439
     345      444        4     0.73666   20.28422   19.44141   11.78878
     346      444        4     0.73666   19.78024   15.75406    8.42807
     347      444        4    -0.12398   19.44867   18.65071   10.84080
     348      444        4    -0.14019   18.08881   18.96639   10.69721
     349      444        4     0.32882   17.26809   18.21847    9.84006
     350      444        4    -0.14019   17.83267   17.16598    9.10486
     351      444        4    -0.12398   19.19245   16.85733    9.24547
     352      444        4    -0.14019   20.00677   17.59005   10.11607
     353      444        4     0.73666   20.29001   22.98295    2.36010
     354      444        4     0.73666   19.77999   26.67915    5.71289
     355      444        4    -0.12398   19.45315   23.77846    3.30284
     356      444        4    -0.14019   18.08925   23.47452    3.43200
     357      444        4     0.32882   17.26557   24.22980    4.27954
     358      444        4    -0.14019   17.83131   25.27872    5.01842
     359      444        4    -0.12398   19.19469   25.57580    4.89351
     360      444        4    -0.14019   20.01279   24.83472    4.03338
     361      444        4     0.73666   22.54887   22.98815   11.78567
     362      444        4     0.73666   23.06333   26.67967    8.42864
     363      444        4    -0.12398   23.38663   23.78225   10.84278
     364      444        4    -0.14019   24.74885   23.47254   10.70938
     365      444        4     0.32882   25.57329   24.22509    9.86015
     366      444        4    -0.14019   25.00917   25.27440    9.12070
     367      444        4    -0.12398   23.64723   25.57711    9.24915
     368      444        4    -0.14019   22.82963   24.84130   10.11451
     369      444        4     0.73666   22.57512   19.44992    2.35685
     370      444        4     0.73666   23.07630   15.75902    5.71388
     371      444        4    -0.12398   23.41102   18.65611    3.30270
     372      444        4    -0.14019   24.77385   18.96265    3.43738
     373      444        4     0.32882   25.59493   18.20981    4.28972
     374      444        4    -0.14019   25.02790   17.16130    5.02832