Created on Mon Mar 12 13:34:13 2018 

        2432 atoms
        2848 bonds
        5120 angles
        6784 dihedrals
        3840 impropers

           7 atom types
           9 bond types
          16 angle types
           4 dihedral types
           1 improper types
           0.000000  27.882000 xlo xhi
           0.000000  40.554600 ylo yhi
           0.000000  44.426170 zlo zhi
          -8.091832  -0.396232  -0.075106 xy xz yz

Masses

    1    65.380000000 # Zn3+2
    2     1.007940000 # H_
    3    12.010700000 # C_R
    4    32.065000000 # S_3+6
    5    14.006700000 # N_R
    6    15.999400000 # O_R
    7    15.999400000 # O_2

Bond Coeffs

    1      160.291409        1.840266  # Zn3+2 O_R
    2      165.837318        1.881712  # Zn3+2 N_R
    3      357.440381        1.081418  # H_ C_R
    4      646.680887        1.311940  # C_R O_R
    5      391.669513        1.458000  # C_R C_R
    6      462.655054        1.379256  # C_R C_R
    7      320.755144        1.749010  # C_R S_3+6
    8      663.718927        1.345073  # C_R N_R
    9      454.920199        1.655586  # S_3+6 O_2

Angle Coeffs

    1                      fourier       50.968023        0.343737        0.374972        0.281246 # O_R Zn3+2 O_R
    2                      fourier       53.299639        0.343737        0.374972        0.281246 # O_R Zn3+2 N_R
    3              cosine/periodic      137.761490              -1               3 # O_R C_R C_R
    4              cosine/periodic      217.450257              -1               3 # O_R C_R O_R
    5              cosine/periodic      117.010657              -1               3 # C_R C_R C_R
    6              cosine/periodic      101.626578              -1               3 # C_R C_R C_R
    7              cosine/periodic       87.834471              -1               3 # S_3+6 C_R C_R
    8              cosine/periodic       76.817955              -1               3 # H_ C_R C_R
    9              cosine/periodic      109.704024              -1               3 # H_ C_R N_R
   10              cosine/periodic      165.695700              -1               3 # C_R C_R N_R
   11                      fourier       86.485290        0.343737        0.374972        0.281246 # O_2 S_3+6 O_2
   12                      fourier       45.421306        0.343737        0.374972        0.281246 # C_R S_3+6 C_R
   13                      fourier       62.516847        0.343737        0.374972        0.281246 # C_R S_3+6 O_2
   14              cosine/periodic      132.654363              -1               3 # C_R N_R C_R
   15              cosine/periodic       36.261492              -1               3 # Zn3+2 N_R C_R
   16              cosine/periodic       50.430477              -1               3 # Zn3+2 O_R C_R

Dihedral Coeffs

    1        2.245703              -1               2 # O_R C_R O_R Zn3+2
    2        0.555556              -1               2 # O_R C_R C_R C_R
    3        1.497136              -1               2 # C_R C_R C_R H_
    4        0.329404               1               2 # C_R C_R S_3+6 O_2

Improper Coeffs

    1        2.000000        1.000000       -1.000000        0.000000               0 # C_R C_R O_R O_R

Pair Coeffs

    1        0.124000        2.461553 # Zn3+2 Zn3+2
    2        0.044000        2.571134 # H_ H_
    3        0.105000        3.430851 # C_R C_R
    4        0.274000        3.594776 # S_3+6 S_3+6
    5        0.069000        3.260689 # N_R N_R
    6        0.060000        3.118146 # O_R O_R
    7        0.060000        3.118146 # O_2 O_2

Atoms

       1      444        1     0.94707    7.71968    6.89488   21.98096
       2      444        1     0.94707   10.71008    7.44588    0.22924
       3      444        1     0.94707    5.79171   17.05412   11.33512
       4      444        1     0.94707    8.58913   17.56531   10.92773
       5      444        1     0.94707    3.90557    3.18587   10.87775
       6      444        1     0.94707    1.10814    2.67472   11.28491
       7      444        1     0.94707    1.97769   13.34528    0.23168
       8      444        1     0.94707   -1.01271   12.79409   21.98340
       9      444        2     0.11166   -1.13671    5.72669    1.41919
      10      444        2     0.11166    5.91382   14.16765   14.73905
      11      444        2     0.11166   11.12542   12.44289   17.88909
      12      444        2     0.11166    5.88033    6.35779    1.79882
      13      444        2     0.11166    1.35359    5.50010    1.35255
      14      444        2     0.11166   11.15098   10.69621   19.64014
      15      444        2     0.11166    5.42374   13.35548    8.98497
      16      444        2     0.11166    5.49603   11.53900    7.26857
      17      444        2     0.11166    9.98179   15.47854   14.23281
      18      444        2     0.11166    6.64066    8.55298    3.55076
      19      444        2     0.11166   10.31196   10.79069    3.24666
      20      444        2     0.11166    3.42471    6.54820    2.09314
      21      444        2     0.11166   10.73235   14.05354   16.10249
      22      444        2     0.11166    9.20632   14.87896    7.63686
      23      444        2     0.11166    5.89336    9.95106    5.44976
      24      444        2     0.11166    6.89742   10.15264   19.27740
      25      444        2     0.11166   -1.22560    9.17134   21.38654
      26      444        2     0.11166    2.98462    7.77656   20.16770
      27      444        2     0.11166    5.47242    7.55057   20.05997
      28      444        2     0.11166    1.25652    9.09355   21.22460
      29      444        2     0.11166   10.66788   15.82031    9.74866
      30      444        2     0.11166    7.90361    4.00105   18.58036
      31      444        2     0.11166   13.16021    2.37604   15.45675
      32      444        2     0.11166    3.75409   16.48628    9.29218
      33      444        2     0.11166   -0.78038   15.59835    9.78931
      34      444        2     0.11166   13.23260    0.62145   13.71169
      35      444        2     0.11166    7.53179    3.23378    2.09092
      36      444        2     0.11166    7.56328    1.41468    3.80599
      37      444        2     0.11166   11.94601    5.38188   19.10792
      38      444        2     0.11166    4.57237   18.69074    7.53157
      39      444        2     0.11166   12.29019    0.63814    7.92141
      40      444        2     0.11166    1.29570   16.66829    9.00385
      41      444        2     0.11166   12.72826    3.97966   17.23535
      42      444        2     0.11166   11.29119    4.74346    3.51766
      43      444        2     0.11166    3.86905   20.10006    5.62502
      44      444        2     0.11166    8.98780   -0.00124   14.04933
      45      444        2     0.11166   -3.14159   19.35114   11.91599
      46      444        2     0.11166    1.06048   17.94772   13.13771
      47      444        2     0.11166    3.54940   17.72222   13.24122
      48      444        2     0.11166   -0.65744   19.27896   12.04838
      49      444        2     0.11166   -0.99728    4.41994   12.46376
      50      444        2     0.11166    1.79363   16.23900    3.63251
      51      444        2     0.11166   -3.46294   17.86417    6.75589
      52      444        2     0.11166    5.94326    3.75403   12.92046
      53      444        2     0.11166   10.47775    4.64207   12.42222
      54      444        2     0.11166   -3.53526   19.61872    8.50095
      55      444        2     0.11166    2.16551   17.00662   20.12217
      56      444        2     0.11166    2.13387   18.82584   18.40709
      57      444        2     0.11166   -2.24882   14.85838    3.10472
      58      444        2     0.11166    5.12483    1.54963   14.68152
      59      444        2     0.11166   -2.59273   19.60188   14.28968
      60      444        2     0.11166    8.40166    3.57210   13.20879
      61      444        2     0.11166   -3.03101   16.26059    4.97573
      62      444        2     0.11166   -1.59351   15.49641   18.69498
      63      444        2     0.11166    5.82812    0.14044   16.58807
      64      444        2     0.11166    0.70955   20.24125    8.16331
      65      444        2     0.11166   12.83879    0.88880   10.29710
      66      444        2     0.11166    8.63677    2.29238    9.07516
      67      444        2     0.11166    6.14783    2.51781    8.97009
      68      444        2     0.11166   10.35466    0.96112   10.16271
      69      444        2     0.11166   10.83431   14.51357   20.79411
      70      444        2     0.11166    3.78403    6.07210    7.47426
      71      444        2     0.11166   -1.42698    7.79765    4.32422
      72      444        2     0.11166    3.81722   13.88269   20.41405
      73      444        2     0.11166    8.34401   14.74025   20.86053
      74      444        2     0.11166   -1.45269    9.54425    2.57316
      75      444        2     0.11166    4.27375    6.88427   13.22811
      76      444        2     0.11166    4.20156    8.70069   14.94452
      77      444        2     0.11166   -0.28427    4.76212    7.98005
      78      444        2     0.11166    3.05688   11.68682   18.66232
      79      444        2     0.11166   -0.61466    9.44944   18.96598
      80      444        2     0.11166    6.27288   13.69218   20.11839
      81      444        2     0.11166   -1.03436    6.18753    6.11038
      82      444        2     0.11166    0.49089    5.36119   14.57578
      83      444        2     0.11166    3.80429   10.28869   16.76333
      84      444        2     0.11166    2.80087   10.08794    2.93568
      85      444        2     0.11166   10.92296   11.06859    0.82610
      86      444        2     0.11166    6.71273   12.46339    2.04516
      87      444        2     0.11166    4.22492   12.68942    2.15267
      88      444        2     0.11166    8.44082   11.14644    0.98804
      89      444        3     0.66835    9.08014    9.21295   20.58287
      90      444        3    -0.00898    3.08363    7.18451    0.03576
      91      444        3    -0.00898    8.98432   12.29817   17.56966
      92      444        3    -0.23282    7.81239   11.64262   17.98971
      93      444        3    -0.00898    8.74778   13.25527   16.48100
      94      444        3    -0.00898    1.61561    7.29309    0.14949
      95      444        3    -0.00898    7.30369   14.21709    8.41454
      96      444        3     0.17581   -0.51370    6.45540    0.90163
      97      444        3    -0.00898    7.40212   12.18969    6.46978
      98      444        3    -0.23282    7.39914   13.31804   16.07939
      99      444        3    -0.07221    6.95858   14.12626   15.04337
     100      444        3    -0.00898    7.91515   14.89760   14.36209
     101      444        3    -0.07221   10.19494   11.95572   18.18074
     102      444        3     0.66835    7.24731   15.30608    9.44834
     103      444        3    -0.23282    8.42825   13.14271    6.59862
     104      444        3     0.17581    5.24023    6.66194    0.97182
     105      444        3    -0.23282    8.88834   11.43168    4.74516
     106      444        3    -0.07221    0.86844    6.34307    0.86209
     107      444        3    -0.07221   10.21067   10.96692   19.16323
     108      444        3     0.66835    8.92329    8.73082    2.10780
     109      444        3    -0.07221    6.26592   13.27748    8.29903
     110      444        3    -0.07221    6.30724   12.26433    7.33698
     111      444        3    -0.00898    9.03320   10.30946   19.55662
     112      444        3    -0.00898    8.51530    9.57901    3.27954
     113      444        3    -0.00898    7.65842   11.21882    5.39578
     114      444        3    -0.07221    9.26076   14.85851   14.75904
     115      444        3    -0.07221    7.27475    9.36405    3.90528
     116      444        3    -0.07221    9.34587   10.62332    3.71914
     117      444        3    -0.07221    3.86362    6.75866    1.11976
     118      444        3    -0.07221    9.68157   14.05319   15.81549
     119      444        3    -0.07221    8.40545   14.14755    7.54734
     120      444        3    -0.07221    6.84991   10.15896    4.97040
     121      444        3     0.66835    7.51976   15.75896   13.19679
     122      444        3    -0.07221    7.80769   10.66293   18.96731
     123      444        3     0.17581   -0.66148    8.35972   21.84190
     124      444        3    -0.07221    3.54340    7.45763   21.04712
     125      444        3     0.17581    4.92369    7.32514   20.97426
     126      444        3    -0.07221    0.72235    8.30580   21.75016
     127      444        3     0.66835    7.15045   19.37232   12.76297
     128      444        3    -0.00898    0.95970   17.31002   11.05945
     129      444        3    -0.00898   11.02104    2.18930   15.76307
     130      444        3    -0.23282    9.86445    1.51012   15.33836
     131      444        3    -0.00898   10.76080    3.14339   16.84885
     132      444        3    -0.00898   -0.50871   17.41645   10.95261
     133      444        3    -0.00898    9.40215    4.08837    2.70044
     134      444        3     0.17581   -2.64440   16.55966   10.24356
     135      444        3    -0.00898    9.45395    2.05897    4.64453
     136      444        3    -0.23282    9.40933    3.18178   17.24357
     137      444        3    -0.07221    8.95035    3.97899   18.28048
     138      444        3    -0.00898    9.89006    4.76509   18.96886
     139      444        3    -0.07221   12.24186    1.86969   15.15954
     140      444        3     0.66835    9.36314    5.17860    1.66709
     141      444        3    -0.23282   10.48586    3.00894    4.53902
     142      444        3     0.17581    3.11495   16.78916   10.12028
     143      444        3    -0.23282   10.89797    1.29228    6.40003
     144      444        3    -0.07221   -1.26159   16.45071   10.26822
     145      444        3    -0.07221   12.28434    0.87689   14.18083
     146      444        3     0.66835    6.82480   18.85596    9.02296
     147      444        3    -0.07221    8.35968    3.15146    2.79352
     148      444        3    -0.07221    8.37782    2.13757    3.75290
     149      444        3    -0.00898   11.12213    0.19551   13.78344
     150      444        3    -0.00898    6.44420   19.71004    7.84677
     151      444        3    -0.00898    9.68302    1.08443    5.72120
     152      444        3    -0.07221   11.23765    4.75150   18.57636
     153      444        3    -0.07221    5.21694   19.50066    7.19349
     154      444        3    -0.07221   11.33338    0.47572    7.42894
     155      444        3    -0.07221    1.73770   16.88348    9.97479
     156      444        3    -0.07221   11.67691    3.95777   17.51857
     157      444        3    -0.07221   10.48642    4.01423    3.58963
     158      444        3    -0.07221    8.86240    0.02521    6.12437
     159      444        3     0.66835    9.47562    5.61192   20.13883
     160      444        3    -0.07221    9.88604    0.52702   14.36431
     161      444        3     0.17581   -2.58231   18.52965   11.47239
     162      444        3    -0.07221    1.61895   17.62683   12.25851
     163      444        3     0.17581    2.99900   17.49434   12.33004
     164      444        3    -0.07221   -1.19755   18.47972   11.54880
     165      444        3     0.66835    2.54693    0.86771    9.44989
     166      444        3    -0.00898    8.73761    2.93023   11.15319
     167      444        3    -0.00898   -1.32374   18.05082    6.44957
     168      444        3    -0.23282   -0.16713   18.72996    6.87428
     169      444        3    -0.00898   -1.06353   17.09674    5.36379
     170      444        3    -0.00898   10.20601    2.82378   11.26003
     171      444        3    -0.00898    0.29536   16.15172   19.51242
     172      444        3     0.17581   12.34172    3.68058   11.96841
     173      444        3    -0.00898    0.24342   18.18128   17.56833
     174      444        3    -0.23282    0.28795   17.05831    4.96907
     175      444        3    -0.07221    0.74690   16.26108    3.93216
     176      444        3    -0.00898   -0.19285   15.47508    3.24378
     177      444        3    -0.07221   -2.54457   18.37048    7.05310
     178      444        3     0.66835    0.33445   15.06143   20.54555
     179      444        3    -0.23282   -0.78837   17.23113   17.67384
     180      444        3     0.17581    6.58236    3.45111   12.09236
     181      444        3    -0.23282   -1.20057   18.94789   15.81283
     182      444        3    -0.07221   10.95893    3.78959   11.94442
     183      444        3    -0.07221   -2.58702   19.36325    8.03181
     184      444        3     0.66835    2.87256    1.38414   13.18946
     185      444        3    -0.07221    1.33768   17.08881   19.41957
     186      444        3    -0.07221    1.31945   18.10280   18.46018
     187      444        3    -0.00898   -1.42480   20.04458    8.42920
     188      444        3    -0.00898    3.25312    0.53016   14.36609
     189      444        3    -0.00898    0.01430   19.15586   16.49188
     190      444        3    -0.07221   -1.54044   15.48869    3.63628
     191      444        3    -0.07221    4.48030    0.73967   15.01827
     192      444        3    -0.07221   -1.63599   19.76439   14.78392
     193      444        3    -0.07221    7.95963    3.35684   12.23785
     194      444        3    -0.07221   -1.97967   16.28244    4.69407
     195      444        3    -0.07221   -0.78885   16.22576   18.62301
     196      444        3    -0.07221    0.83483   20.21516   16.08872
     197      444        3     0.66835    0.22164   14.62821    2.07381
     198      444        3    -0.07221   -0.18869   19.71304    7.84855
     199      444        3     0.17581   12.27955    1.71040   10.74047
     200      444        3    -0.07221    8.07832    2.61332    9.95413
     201      444        3     0.17581    6.69826    2.74577    9.88260
     202      444        3    -0.07221   10.89480    1.76039   10.66406
     203      444        3     0.66835    0.61782   11.02747    1.63022
     204      444        3    -0.00898    6.61384   13.05568   22.17688
     205      444        3    -0.00898    0.71408    7.94255    4.64365
     206      444        3    -0.23282    1.88606    8.59806    4.22360
     207      444        3    -0.00898    0.95046    6.98537    5.73098
     208      444        3    -0.00898    8.08188   12.94707   22.06204
     209      444        3    -0.00898    2.39364    6.02286   13.79832
     210      444        3     0.17581   10.21124   13.78482   21.31146
     211      444        3    -0.00898    2.29532    8.05024   15.74308
     212      444        3    -0.23282    2.29904    6.92232    6.13370
     213      444        3    -0.07221    2.73932    6.11385    7.16972
     214      444        3    -0.00898    1.78249    5.34269    7.85099
     215      444        3    -0.07221   -0.49656    8.28488    4.03167
     216      444        3     0.66835    2.44994    4.93393   12.76430
     217      444        3    -0.23282    1.26910    7.09732   15.61358
     218      444        3     0.17581    4.45729   13.57841   21.24082
     219      444        3    -0.23282    0.80904    8.80839   17.46748
     220      444        3    -0.07221    8.82910   13.89721   21.35099
     221      444        3    -0.07221   -0.51237    9.27358    3.04897
     222      444        3     0.66835    0.77404   11.50919   20.10506
     223      444        3    -0.07221    3.43152    6.96235   13.91405
     224      444        3    -0.07221    3.39029    7.97547   14.87410
     225      444        3    -0.00898    0.66516    9.93112    2.64336
     226      444        3    -0.00898    1.18210   10.66098   18.93332
     227      444        3    -0.00898    2.03905    9.02113   16.81730
     228      444        3    -0.07221    0.43692    5.38207    7.45382
     229      444        3    -0.07221    2.42275   10.87584   18.30758
     230      444        3    -0.07221    0.35147    9.61676   18.49350
     231      444        3    -0.07221    5.83390   13.48163   21.09310
     232      444        3    -0.07221    0.01639    6.18761    6.39737
     233      444        3    -0.07221    1.29182    6.09252   14.66530
     234      444        3    -0.07221    2.84766   10.08089   17.24180
     235      444        3     0.66835    2.17768    4.48113    9.01629
     236      444        3    -0.07221    1.89063    9.57767    3.24600
     237      444        3     0.17581   10.35889   11.88031    0.37096
     238      444        3    -0.07221    6.15400   12.78244    1.16552
     239      444        3     0.17581    4.77371   12.91497    1.23727
     240      444        3    -0.07221    8.97504   11.93427    0.46270
     241      444        4     1.13645    6.40219   12.21907   17.06409
     242      444        4     1.13645    9.70450   12.88045    5.38534
     243      444        4     1.13645    8.43790    2.06146   16.25665
     244      444        4     1.13645   11.72980    2.74331    5.78651
     245      444        4     1.13645    1.25941   18.17861    5.95622
     246      444        4     1.13645   -2.03230   17.49679   16.42613
     247      444        4     1.13645    3.29643    8.02062    5.14877
     248      444        4     1.13645   -0.00719    7.35965   16.82752
     249      444        5    -0.30265   -1.17479    7.46196    0.29077
     250      444        5    -0.30265    5.66569    6.91356   22.02205
     251      444        5    -0.30265   -3.29934   17.57799   10.83999
     252      444        5    -0.30265    3.73935   17.08165   11.28003
     253      444        5    -0.30265   12.99665    2.66210   11.37154
     254      444        5    -0.30265    5.95794    3.15850   10.93261
     255      444        5    -0.30265   10.87225   12.77813   21.92209
     256      444        5    -0.30265    4.03177   13.32667    0.18903
     257      444        6    -0.59650    6.17754   15.41296   10.12472
     258      444        6    -0.59650   10.14293    8.78614    1.73351
     259      444        6    -0.59650    7.97535    8.66066   20.89141
     260      444        6    -0.59650    8.28296   16.04281    9.55052
     261      444        6    -0.59650   10.22527    8.92147   21.05867
     262      444        6    -0.59650    8.00556    8.04444    1.56291
     263      444        6    -0.59650    6.27678   15.97553   13.01198
     264      444        6    -0.59650    8.47259   16.20038   12.48020
     265      444        7    -0.55575   10.97518   12.55127    6.01508
     266      444        7    -0.55575    5.49186   12.97162   17.92885
     267      444        7    -0.55575    5.84402   11.14021   16.25176
     268      444        7    -0.55575    9.66129   13.94740    4.38664
     269      444        6    -0.59650    8.29887    5.29244    0.97960
     270      444        6    -0.59650    8.03487   18.91262    9.42790
     271      444        6    -0.59650    6.05330   18.81995   12.42778
     272      444        6    -0.59650   10.40441    5.90999    1.57557
     273      444        6    -0.59650    8.30645   19.07898   12.31560
     274      444        6    -0.59650    5.89360   18.16804    9.54385
     275      444        6    -0.59650    8.22918    5.82313   20.30720
     276      444        6    -0.59650   10.41530    6.04822   20.87497
     277      444        7    -0.55575   13.01894    2.41496    5.19608
     278      444        7    -0.55575    7.51557    2.79146   15.38478
     279      444        7    -0.55575    7.89605    0.97614   17.07076
     280      444        7    -0.55575   11.65655    3.80863    6.78476
     281      444        6    -0.59650    1.39875   14.94763   21.23149
     282      444        6    -0.59650    1.66250    1.32744   12.78474
     283      444        6    -0.59650    3.64410    1.42002    9.78486
     284      444        6    -0.59650   -0.70678   14.33000   20.63707
     285      444        6    -0.59650    1.39094    1.16112    9.89726
     286      444        6    -0.59650    3.80379    2.07201   12.66901
     287      444        6    -0.59650    1.46808   14.41710    1.90544
     288      444        6    -0.59650   -0.71802   14.19185    1.33789
     289      444        7    -0.55575   -3.32145   17.82501   17.01522
     290      444        7    -0.55575    2.18181   17.44863    6.82719
     291      444        7    -0.55575    1.80120   19.26395    5.14188
     292      444        7    -0.55575   -1.95900   16.43154   15.42788
     293      444        6    -0.59650    3.51972    4.82706   12.08636
     294      444        6    -0.59650   -0.44561   11.45389   20.47935
     295      444        6    -0.59650    1.72248   11.58008    1.32146
     296      444        6    -0.59650    1.41429    4.19722   12.66235
     297      444        6    -0.59650   -0.52738   11.31852    1.15419
     298      444        6    -0.59650    1.69179   12.19551   20.64995
     299      444        6    -0.59650    3.42062    4.26442    9.20088
     300      444        6    -0.59650    1.22479    4.03974    9.73266
     301      444        7    -0.55575   -1.27787    7.68882   16.19756
     302      444        7    -0.55575    4.20548    7.26718    4.28357
     303      444        7    -0.55575    3.85655    9.09881    5.96066
     304      444        7    -0.55575    0.03597    6.29273   17.82622
     305      444        1     0.94707    7.52156    6.85732   44.19404
     306      444        1     0.94707   10.51196    7.40833   22.44232
     307      444        1     0.94707    5.59359   17.01657   33.54820
     308      444        1     0.94707    8.39101   17.52776   33.14081
     309      444        1     0.94707    3.70746    3.14832   33.09083
     310      444        1     0.94707    0.91002    2.63717   33.49800
     311      444        1     0.94707    1.77957   13.30772   22.44477
     312      444        1     0.94707   -1.21082   12.75653   44.19649
     313      444        2     0.11166   -1.33482    5.68914   23.63228
     314      444        2     0.11166    5.71571   14.13010   36.95213
     315      444        2     0.11166   10.92730   12.40534   40.10217
     316      444        2     0.11166    5.68222    6.32023   24.01190
     317      444        2     0.11166    1.15548    5.46255   23.56564
     318      444        2     0.11166   10.95286   10.65865   41.85323
     319      444        2     0.11166    5.22562   13.31793   31.19806
     320      444        2     0.11166    5.29792   11.50145   29.48165
     321      444        2     0.11166    9.78368   15.44099   36.44590
     322      444        2     0.11166    6.44255    8.51543   25.76385
     323      444        2     0.11166   10.11384   10.75314   25.45975
     324      444        2     0.11166    3.22660    6.51065   24.30622
     325      444        2     0.11166   10.53423   14.01598   38.31557
     326      444        2     0.11166    9.00821   14.84141   29.84994
     327      444        2     0.11166    5.69525    9.91350   27.66284
     328      444        2     0.11166    6.69930   10.11508   41.49049
     329      444        2     0.11166   -1.42372    9.13379   43.59962
     330      444        2     0.11166    2.78650    7.73901   42.38079
     331      444        2     0.11166    5.27430    7.51301   42.27306
     332      444        2     0.11166    1.05840    9.05599   43.43769
     333      444        2     0.11166   10.46977   15.78276   31.96174
     334      444        2     0.11166    7.70549    3.96350   40.79344
     335      444        2     0.11166   12.96210    2.33849   37.66984
     336      444        2     0.11166    3.55597   16.44873   31.50526
     337      444        2     0.11166   -0.97850   15.56080   32.00239
     338      444        2     0.11166   13.03448    0.58390   35.92478
     339      444        2     0.11166    7.33367    3.19622   24.30400
     340      444        2     0.11166    7.36516    1.37713   26.01907
     341      444        2     0.11166   11.74789    5.34432   41.32100
     342      444        2     0.11166    4.37425   18.65319   29.74465
     343      444        2     0.11166   12.09208    0.60058   30.13449
     344      444        2     0.11166    1.09758   16.63074   31.21694
     345      444        2     0.11166   12.53014    3.94211   39.44844
     346      444        2     0.11166   11.09308    4.70591   25.73075
     347      444        2     0.11166    3.67093   20.06250   27.83810
     348      444        2     0.11166    8.78968   -0.03880   36.26242
     349      444        2     0.11166   -3.33971   19.31359   34.12907
     350      444        2     0.11166    0.86236   17.91016   35.35079
     351      444        2     0.11166    3.35129   17.68467   35.45430
     352      444        2     0.11166   -0.85556   19.24140   34.26146
     353      444        2     0.11166   -1.19539    4.38239   34.67685
     354      444        2     0.11166    1.59552   16.20144   25.84559
     355      444        2     0.11166   -3.66106   17.82662   28.96897
     356      444        2     0.11166    5.74514    3.71648   35.13355
     357      444        2     0.11166   10.27963    4.60452   34.63531
     358      444        2     0.11166   -3.73338   19.58117   30.71403
     359      444        2     0.11166    1.96740   16.96907   42.33525
     360      444        2     0.11166    1.93575   18.78828   40.62018
     361      444        2     0.11166   -2.44693   14.82082   25.31781
     362      444        2     0.11166    4.92671    1.51208   36.89460
     363      444        2     0.11166   -2.79085   19.56432   36.50276
     364      444        2     0.11166    8.20355    3.53455   35.42187
     365      444        2     0.11166   -3.22913   16.22304   27.18882
     366      444        2     0.11166   -1.79162   15.45885   40.90806
     367      444        2     0.11166    5.63001    0.10289   38.80115