Created on Tue Feb 06 14:52:12 2018 

        3520 atoms
        3744 bonds
        6912 angles
        8448 dihedrals
        2496 impropers

           6 atom types
          10 bond types
          17 angle types
           5 dihedral types
           1 improper types
           0.000000  29.618000 xlo xhi
           0.000000  39.704703 ylo yhi
           0.000000  39.694447 zlo zhi
          14.732925  14.743309  -0.004783 xy xz yz

Masses

    1    95.960000000 # Mo3+6
    2     1.007940000 # H_
    3    12.010700000 # C_R
    4    12.010700000 # C_3
    5    14.006700000 # N_R
    6    15.999400000 # O_R

Bond Coeffs

    1      299.286699        2.054843  # Mo3+6 O_R
    2      146.819151        2.968000  # Mo3+6 Mo3+6
    3      357.440381        1.081418  # H_ C_R
    4      331.069389        1.109401  # H_ C_3
    5      646.680887        1.311940  # C_R O_R
    6      391.669513        1.458000  # C_R C_R
    7      462.655054        1.379256  # C_R C_R
    8      369.943935        1.486000  # C_R C_3
    9      349.795899        1.514000  # C_3 C_3
   10      663.718927        1.345073  # C_R N_R

Angle Coeffs

    1                      fourier       29.363498        0.343737        0.374972        0.281246 # O_R Mo3+6 O_R
    2                      fourier       15.473493        0.343737        0.374972        0.281246 # O_R Mo3+6 Mo3+6
    3              cosine/periodic      137.761490              -1               3 # O_R C_R C_R
    4              cosine/periodic      217.450257              -1               3 # O_R C_R O_R
    5              cosine/periodic      117.010657              -1               3 # C_R C_R C_R
    6              cosine/periodic      101.626578              -1               3 # C_R C_R C_R
    7              cosine/periodic       96.739224              -1               3 # C_3 C_R C_R
    8              cosine/periodic       76.817955              -1               3 # H_ C_R C_R
    9                      fourier       93.452663        0.343737        0.374972        0.281246 # C_3 C_3 C_3
   10                      fourier       69.847816        0.343737        0.374972        0.281246 # C_3 C_3 H_
   11                      fourier       73.868412        0.343737        0.374972        0.281246 # H_ C_3 C_R
   12                      fourier       97.888497        0.343737        0.374972        0.281246 # C_3 C_3 C_R
   13                      fourier       61.342703        0.343737        0.374972        0.281246 # H_ C_3 H_
   14              cosine/periodic      165.695700              -1               3 # N_R C_R C_R
   15              cosine/periodic      109.704024              -1               3 # N_R C_R H_
   16              cosine/periodic      132.654363              -1               3 # C_R N_R C_R
   17              cosine/periodic       92.779934              -1               3 # Mo3+6 O_R C_R

Dihedral Coeffs

    1        2.245703              -1               2 # O_R C_R O_R Mo3+6
    2        0.555556              -1               2 # O_R C_R C_R C_R
    3        1.497136              -1               2 # C_R C_R C_R C_R
    4        0.083333               1               3 # C_R C_R C_3 H_
    5        0.066219               1               3 # H_ C_3 C_3 H_

Improper Coeffs

    1        2.000000        1.000000       -1.000000        0.000000               0 # C_R C_R O_R O_R

Pair Coeffs

    1        0.056000        2.719023 # Mo3+6 Mo3+6
    2        0.044000        2.571134 # H_ H_
    3        0.105000        3.430851 # C_R C_R
    4        0.105000        3.430851 # C_3 C_3
    5        0.069000        3.260689 # N_R N_R
    6        0.060000        3.118146 # O_R O_R

Atoms

       1      444        1     0.90062   14.54289   18.81222    0.08991
       2      444        1     0.90062   21.95127   10.96500    9.82973
       3      444        1     0.90062   18.22813   19.75855    8.88382
       4      444        1     0.90062   10.86138   10.01680    1.04019
       5      444        1     0.90062   15.00351    1.03772   19.75593
       6      444        1     0.90062    7.59557    8.88492   10.01749
       7      444        1     0.90062   11.31893    0.09139   10.96341
       8      444        1     0.90062   18.68553    9.83338   18.80723
       9      444        2     0.09669   26.91227   18.44034   14.61113
      10      444        2     0.09669   12.26915    0.86871    1.58242
      11      444        2     0.09669   18.53028   18.75358    0.51603
      12      444        2     0.09669   11.50062    1.31895    0.00000
      13      444        2     0.09669   14.22089   18.54852   18.33625
      14      444        2     0.09669   20.50734   17.17967    0.63749
      15      444        2     0.09669   15.39126   18.08619   16.44204
      16      444        2     0.09669   14.28590   19.71776   14.08498
      17      444        2     0.09669    7.73308    0.53228   15.51795
      18      444        2     0.09669   13.27431    1.09824    0.13000
      19      444        2     0.09669   21.58752   18.58938    0.67481
      20      444        2     0.09669   20.41900   18.34119    1.98234
      21      444        2     0.09669   13.87861   17.13340   13.93374
      22      444        2     0.09669   23.56240   18.72171   16.25885
      23      444        2     0.09669   23.27514   18.03589   13.93573
      24      444        2     0.09669   25.00855   18.15979   13.60924
      25      444        2     0.09669   24.41492   16.91467   14.72803
      26      444        2     0.09669   15.88859    0.65445   14.55337
      27      444        2     0.09669   16.87653    1.24090   15.91747
      28      444        2     0.09669   17.65389    0.80648   14.37534
      29      444        2     0.09669   16.21759   17.67090    4.09984
      30      444        2     0.09669   10.02830    1.94400    3.65844
      31      444        2     0.09669   17.23228   17.71698    6.39914
      32      444        2     0.09669   11.01987    1.81520    5.97004
      33      444        2     0.09669   15.99416   19.35366   14.36681
      34      444        2     0.09669   15.57721   16.84180   14.31183
      35      444        2     0.09669   14.30449   16.11229   15.32642
      36      444        2     0.09669   12.12881   11.33103   15.16705
      37      444        2     0.09669   12.23659    9.06646    8.34377
      38      444        2     0.09669   11.13021   11.03127    9.41155
      39      444        2     0.09669   11.48015    8.61284    9.89146
      40      444        2     0.09669   14.25377   11.23221   11.44589
      41      444        2     0.09669   13.10553   12.60673    9.29565
      42      444        2     0.09669   15.41986   11.69260   13.34408
      43      444        2     0.09669   14.30969   10.05616   15.69558
      44      444        2     0.09669   15.12941    9.39293   14.26420
      45      444        2     0.09669   13.24119    8.83498    9.79619
      46      444        2     0.09669   14.19100   11.19821    9.24940
      47      444        2     0.09669   13.02129   11.44664    7.94941
      48      444        2     0.09669   13.89975   12.64041   15.84979
      49      444        2     0.09669   23.59151   11.04517   13.50981
      50      444        2     0.09669   23.29651   11.72960   15.83392
      51      444        2     0.09669   25.03029   11.61215   16.16219
      52      444        2     0.09669   24.43315   12.85475   15.04221
      53      444        2     0.09669   23.28404    9.25895   15.21389
      54      444        2     0.09669    9.47091    8.67589   13.85376
      55      444        2     0.09669   10.24061    9.11290   15.39906
      56      444        2     0.09669    8.82884   12.09778    5.82357
      57      444        2     0.09669    9.99854    7.97115    6.27152
      58      444        2     0.09669    9.84781   12.04773    3.52645
      59      444        2     0.09669   10.99383    8.09559    3.96151
      60      444        2     0.09669   16.01835   10.42351   15.42010
      61      444        2     0.09669   15.59925   12.93313   15.47488
      62      444        2     0.09669   14.32938   13.66398   14.46009
      63      444        2     0.09669   15.85203    5.24061    8.51287
      64      444        2     0.09669   23.32261   18.27303   10.78855
      65      444        2     0.09669   22.21771   19.33834    8.82150
      66      444        2     0.09669   22.56686   19.82201   11.23948
      67      444        2     0.09669   17.97580    1.51914    8.61886
      68      444        2     0.09669   24.19425   19.22001    7.24741
      69      444        2     0.09669    4.29708    3.41620    8.15542
      70      444        2     0.09669   18.03335    5.76986    9.78944
      71      444        2     0.09669   18.85139    4.33825   10.45433
      72      444        2     0.09669   24.32782   19.72536   11.01838
      73      444        2     0.09669   10.47001   19.17436    8.65676
      74      444        2     0.09669   24.10817   17.87500    8.40887
      75      444        2     0.09669   17.62375    5.92176    7.20534
      76      444        2     0.09669   12.50549    3.58584    8.79827
      77      444        2     0.09669   12.21261    5.90994    8.11335
      78      444        2     0.09669   13.94643    6.23757    8.23303
      79      444        2     0.09669   13.35077    5.11900    6.98960
      80      444        2     0.09669   12.19758    5.29087   10.58393
      81      444        2     0.09669   13.19068    3.92962   11.16843
      82      444        2     0.09669   13.96271    5.47389   10.73199
      83      444        2     0.09669   19.90510   15.74778    7.74836
      84      444        2     0.09669   21.08084   16.19519   11.87420
      85      444        2     0.09669   20.92141   13.44929    7.79837
      86      444        2     0.09669   22.07336   13.88397   11.74876
      87      444        2     0.09669   19.74196    5.49239    9.42326
      88      444        2     0.09669   19.32355    5.54714    6.91299
      89      444        2     0.09669   18.05265    4.53097    6.18241
      90      444        2     0.09669   15.85479    4.68665    1.40320
      91      444        2     0.09669   23.32477   11.50646   18.98089
      92      444        2     0.09669   14.84664   10.43978    1.09755
      93      444        2     0.09669   22.56963    9.95797   18.52738
      94      444        2     0.09669   17.97353    8.41105    1.30099
      95      444        2     0.09669   16.82088   10.55861    2.67402
      96      444        2     0.09669    4.33395    6.51604    1.76402
      97      444        2     0.09669    3.18393    4.16246    0.00000
      98      444        2     0.09669   11.41750    5.59449   19.31115
      99      444        2     0.09669   24.33056   10.05466   18.74987
     100      444        2     0.09669   17.90713   10.60726    1.26625
     101      444        2     0.09669   16.73478   11.90492    1.51414
     102      444        2     0.09669    2.82021    4.00556    2.70915
     103      444        2     0.09669   12.50638    6.33755    1.11958
     104      444        2     0.09669   12.21671    4.01430    1.80828
     105      444        2     0.09669   13.94994    3.68789    1.68503
     106      444        2     0.09669   13.35578    4.80759    2.92945
     107      444        2     0.09669   19.57055    4.62605   19.18492
     108      444        2     0.09669   20.55983    5.98844   18.59685
     109      444        2     0.09669   21.33570    4.44642   19.03428
     110      444        2     0.09669   12.53241   14.02789    2.17843
     111      444        2     0.09669   21.08287   13.58269   17.90160
     112      444        2     0.09669   13.54698   16.32735    2.13199
     113      444        2     0.09669   22.07477   15.89426   18.03021
     114      444        2     0.09669    4.93884    4.44355    0.49320
     115      444        2     0.09669    4.51871    4.38433    3.00388
     116      444        2     0.09669   18.05349    5.39611    3.73386
     117      444        2     0.09669    2.63462    1.40980    5.23609
     118      444        2     0.09669   17.27769   18.98129   18.26480
     119      444        2     0.09669   11.01647    1.09642   19.33080
     120      444        2     0.09669   18.03147   18.53107   19.80753
     121      444        2     0.09669   15.32610    1.30162    1.51117
     122      444        2     0.09669    9.03902    2.67039   19.20814
     123      444        2     0.09669   14.15572    1.76395    3.40539
     124      444        2     0.09669   15.21161   -0.00069    5.76244
     125      444        2     0.09669   21.81382   19.31794    4.32947
     126      444        2     0.09669   16.27260   18.75184   19.71742
     127      444        2     0.09669    7.95575    1.26070   19.16269
     128      444        2     0.09669    9.12799    1.50885   17.86508
     129      444        2     0.09669   15.66834    2.71690    5.91348
     130      444        2     0.09669    5.98411    1.12833    3.58739
     131      444        2     0.09669    6.27178    1.81417    5.91169
     132      444        2     0.09669    4.53794    1.69035    6.23699
     133      444        2     0.09669    5.13207    2.93541    5.11939
     134      444        2     0.09669   13.65828   19.19561    5.29405
     135      444        2     0.09669   12.67031   18.60914    3.92995
     136      444        2     0.09669   11.89297   19.04364    5.47208
     137      444        2     0.09669   13.32955    2.17900   15.74758
     138      444        2     0.09669   19.51873   17.90592   16.18898
     139      444        2     0.09669   12.31417    2.13290   13.44649
     140      444        2     0.09669   18.52713   18.03471   13.87738
     141      444        2     0.09669   13.55280    0.49664    5.48061
     142      444        2     0.09669   13.96938    3.00849    5.53440
     143      444        2     0.09669   15.24245    3.73793    4.52060
     144      444        2     0.09669   17.41813    8.51921    4.68037
     145      444        2     0.09669   17.31033   10.78360   11.50365
     146      444        2     0.09669   18.41671    8.81880   10.43587
     147      444        2     0.09669   18.06656   11.23722    9.95537
     148      444        2     0.09669   15.29308    8.61793    8.40133
     149      444        2     0.09669   16.44133    7.24333   10.55158
     150      444        2     0.09669   14.12700    8.15760    6.50314
     151      444        2     0.09669   15.23721    9.79401    4.15164
     152      444        2     0.09669   14.41748   10.45727    5.58302
     153      444        2     0.09669   16.30566   11.01508   10.05103
     154      444        2     0.09669   15.35593    8.65185   10.59802
     155      444        2     0.09669   16.52556    8.40342   11.89782
     156      444        2     0.09669   15.64714    7.20977    3.99743
     157      444        2     0.09669    5.95537    8.80495    6.33742
     158      444        2     0.09669    6.25045    8.12066    4.01351
     159      444        2     0.09669    4.51660    8.23816    3.68503
     160      444        2     0.09669    5.11331    6.99547    4.80382
     161      444        2     0.09669    6.26286   10.59125    4.63353
     162      444        2     0.09669   20.07599   11.17425    5.99366
     163      444        2     0.09669   19.30630   10.73734    4.44836
     164      444        2     0.09669   20.71807    7.75226   14.02385
     165      444        2     0.09669   19.54836   11.87887   13.57570
     166      444        2     0.09669   19.69907    7.80239   16.32097
     167      444        2     0.09669   18.55303   11.75451   15.88572
     168      444        2     0.09669   13.52854    9.42669    4.42712
     169      444        2     0.09669   13.94719    6.91708    4.37115
     170      444        2     0.09669   15.21754    6.18622    5.38733
     171      444        2     0.09669   13.69498   14.60945   11.33455
     172      444        2     0.09669    6.22461    1.57701    9.05887
     173      444        2     0.09669    7.32943    0.51170   11.02593
     174      444        2     0.09669    6.96956   -0.00104    8.60794
     175      444        2     0.09669   11.57125   18.33096   11.22837
     176      444        2     0.09669    5.35278    0.63008   12.59981
     177      444        2     0.09669   25.21346   16.43396   11.69180
     178      444        2     0.09669   11.51358   14.08024   10.05778
     179      444        2     0.09669   10.69559   15.51187    9.39290
     180      444        2     0.09669    5.21939    0.12468    8.82904
     181      444        2     0.09669   19.07707    0.67574   11.19046
     182      444        2     0.09669    5.43901    1.97508   11.43855
     183      444        2     0.09669   11.92321   13.92836   12.64209
     184      444        2     0.09669   17.04153   16.26414   11.04915
     185      444        2     0.09669   17.33422   13.94002   11.73368
     186      444        2     0.09669   15.60048   13.61243   11.61420
     187      444        2     0.09669   16.19618   14.73094   12.85783
     188      444        2     0.09669   17.34941   14.55915    9.26329
     189      444        2     0.09669   16.35640   15.92044    8.67899
     190      444        2     0.09669   15.58431   14.37617    9.11523
     191      444        2     0.09669    9.64193    4.10228   12.09827
     192      444        2     0.09669    8.46621    3.65467    7.97323
     193      444        2     0.09669    8.62586    6.40077   12.04885
     194      444        2     0.09669    7.47367    5.96591    8.09846
     195      444        2     0.09669    9.80507   14.35777   10.42416
     196      444        2     0.09669   10.22336   14.30301   12.93424
     197      444        2     0.09669   11.49413   15.31915   13.66442
     198      444        2     0.09669   13.69209   15.16352   18.44402
     199      444        2     0.09669    6.22218    8.34370    0.86653
     200      444        2     0.09669   14.70024    9.41042   18.74967
     201      444        2     0.09669    6.97723    9.89219    1.31984
     202      444        2     0.09669   11.57342   11.43913   18.54644
     203      444        2     0.09669   12.72602    9.29161   17.17321
     204      444        2     0.09669   25.21297   13.33415   18.08340
     205      444        2     0.09669   26.31615   15.68779   19.72100
     206      444        2     0.09669   18.12951   14.25577    0.53627
     207      444        2     0.09669    5.21637    9.79547    1.09755
     208      444        2     0.09669   11.63984    9.24292   18.58117
     209      444        2     0.09669   12.81204    7.94528   18.33288
     210      444        2     0.09669   26.72669   15.84458   17.13808
     211      444        2     0.09669   17.04055   13.51261   18.72784
     212      444        2     0.09669   17.32368   15.83582   18.02128
     213      444        2     0.09669   15.59645   16.16225   18.16061
     214      444        2     0.09669   16.19116   15.04245   16.91777
     215      444        2     0.09669    9.97643   15.22423    0.66250
     216      444        2     0.09669    8.98705   13.86187    1.25038
     217      444        2     0.09669    8.21121   15.40386    0.81294
     218      444        2     0.09669   17.01480    5.82211   17.66899
     219      444        2     0.09669    8.46389    6.26737    1.94503
     220      444        2     0.09669   16.00031    3.52261   17.71543
     221      444        2     0.09669    7.47246    3.95576    1.81741
     222      444        2     0.09669   24.60817   15.40671   19.35422
     223      444        2     0.09669   25.02825   15.46583   16.84354
     224      444        2     0.09669   11.34888   14.45400   16.11337
     225      444        3     0.59852   24.43228   19.25414   18.46903
     226      444        3    -0.00084   25.70470   18.95219   17.74778
     227      444        3    -0.00084   26.90128   18.86475   18.48789
     228      444        3    -0.18942   28.08928   18.62194   17.78768
     229      444        3    -0.00084   13.30689   18.47506   16.39579
     230      444        3    -0.18942   26.90610   18.56292   15.69499
     231      444        3    -0.00084   25.69071   18.79662   16.34677
     232      444        4     0.09106   19.51948   19.07706    0.15005
     233      444        4    -0.34820   12.30772    0.71893    0.49320
     234      444        4    -0.34820   20.56892   18.24539    0.89749
     235      444        4     0.09106   14.62237   18.25219   15.66799
     236      444        4    -0.34820   15.02720   19.50148   14.86736
     237      444        4    -0.34820   14.58905   17.01179   14.76356
     238      444        4     0.09106   24.39087   18.93911   15.56519
     239      444        4    -0.34820   24.26971   17.95216   14.39718
     240      444        4    -0.34820   16.84928    0.53606   15.07555
     241      444        3     0.59852   16.08410   19.76992    2.37929
     242      444        3    -0.00084   16.72097   19.73865    3.70587
     243      444        3    -0.18942   16.69075   18.57161    4.48686
     244      444        3    -0.18942    9.98084    1.02490    4.24076
     245      444        3     0.15364   17.25566   18.59866    5.75510
     246      444        3     0.15364   10.52551    0.95302    5.51554
     247      444        3     0.59852    9.65701   10.52388   11.30280
     248      444        3    -0.00084   10.92810   10.82545   12.02662
     249      444        3    -0.00084   12.12612   10.91515   11.28910
     250      444        3    -0.18942   13.31254   11.15744   11.99229
     251      444        3    -0.00084   13.33563   11.30162   13.38457
     252      444        3    -0.18942   12.12494   11.21091   14.08280
     253      444        3    -0.00084   10.91123   10.97693   13.42804
     254      444        4     0.09106   12.11875   10.70774    9.77893
     255      444        4    -0.34820   12.27451    9.21434    9.43319
     256      444        4    -0.34820   13.16887   11.54135    9.03465
     257      444        4     0.09106   14.64915   11.52469   14.11594
     258      444        4    -0.34820   15.05339   10.27479   14.91598
     259      444        4    -0.34820   14.61258   12.76363   15.02236
     260      444        4     0.09106    9.61009   10.83033   14.20664
     261      444        4    -0.34820   24.29142   11.81687   15.37366
     262      444        4    -0.34820    9.43793    9.38059   14.69548
     263      444        3     0.59852    8.68705   10.00088    7.54572
     264      444        3    -0.00084    9.32764   10.02951    6.22072
     265      444        3    -0.18942    9.30111   11.19581    5.43814
     266      444        3    -0.18942    9.95346    8.88969    5.68821
     267      444        3     0.15364    9.86855   11.16650    4.17129
     268      444        3     0.15364   10.50071    8.95933    4.41204
     269      444        3     0.59852   13.37858    1.37786    9.32423
     270      444        3    -0.00084   14.65017    2.10155    9.02374
     271      444        3    -0.00084   15.84799    1.36359    8.93542
     272      444        3    -0.18942   17.03472    2.06594    8.69249
     273      444        3    -0.00084   17.05829    3.45794    8.54602
     274      444        3    -0.18942   15.84775    4.15672    8.63473
     275      444        3    -0.00084   14.63368    3.50271    8.86913
     276      444        4     0.09106   23.20628   19.70595    9.14501
     277      444        4    -0.34820   23.36114   19.36234   10.63891
     278      444        4    -0.34820   24.25650   18.95992    8.31301
     279      444        4     0.09106   18.37214    4.18858    8.32254
     280      444        4    -0.34820   18.77643    4.98933    9.57192
     281      444        4    -0.34820   18.33621    5.09386    7.08288
     282      444        4     0.09106   13.33279    4.28210    9.01401
     283      444        4    -0.34820   13.20768    5.44979    8.02741
     284      444        4    -0.34820   13.15950    4.77132   10.46346
     285      444        3     0.59852   19.76983   17.47113    9.84581
     286      444        3    -0.00084   20.40748   16.14477    9.81644
     287      444        3    -0.18942   20.37835   15.36222    8.65041
     288      444        3    -0.18942   21.03389   15.61162   10.95587
     289      444        3     0.15364   20.94409   14.09432    8.67939
     290      444        3     0.15364   21.57972   14.33544   10.88561
     291      444        3     0.59852   13.37756    8.54748    0.59184
     292      444        3    -0.00084   14.64916    7.82424    0.89233
     293      444        3    -0.00084   15.84590    8.56379    0.98224
     294      444        3    -0.18942   17.03286    7.86295    1.22457
     295      444        3    -0.00084   17.05879    6.47087    1.37144
     296      444        3    -0.18942   15.84877    5.77057    1.28015
     297      444        3    -0.00084   14.63433    6.42304    1.04694
     298      444        4     0.09106   15.83602   10.07382    0.77464
     299      444        4    -0.34820   23.36356   10.41696   19.12895
     300      444        4    -0.34820   16.88439   10.82003    1.60882
     301      444        4     0.09106    3.56528    5.74234    1.59512
     302      444        4    -0.34820    3.97205    4.94439    0.34475
     303      444        4    -0.34820    3.53034    4.83520    2.83359
     304      444        4     0.09106   13.33419    5.64195    0.90384
     305      444        4    -0.34820   13.21140    4.47539    1.89223
     306      444        4    -0.34820   20.53091    5.14777   19.30143
     307      444        3     0.59852   12.39881   12.30704    0.07939
     308      444        3    -0.00084   13.03210   13.63343    0.09924
     309      444        3    -0.18942   13.00607   14.41472    1.27796
     310      444        3    -0.18942   21.03506   14.16532   18.82053
     311      444        3     0.15364   13.57101   15.68283    1.25077
     312      444        3     0.15364   21.58040   15.44156   18.89218
     313      444        3     0.59852    5.11469    0.59582    1.37839
     314      444        3    -0.00084    3.84218    0.89783    2.09944
     315      444        3    -0.00084    2.64562    0.98531    1.35934
     316      444        3    -0.18942    1.45763    1.22816    2.05955
     317      444        3    -0.00084   16.24001    1.37507    3.45143
     318      444        3    -0.18942    2.64086    1.28720    4.15244
     319      444        3    -0.00084    3.85625    1.05344    3.50065
     320      444        4     0.09106   10.02747    0.77296   19.69738
     321      444        4    -0.34820   17.23920   19.13109   19.35422
     322      444        4    -0.34820    8.97800    1.60467   18.94973
     323      444        4     0.09106   14.92459    1.59799    4.17943
     324      444        4    -0.34820   14.51975    0.34878    4.98007
     325      444        4    -0.34820   14.95790    2.83847    5.08367
     326      444        4     0.09106    5.15606    0.91095    4.28224
     327      444        4    -0.34820    5.27722    1.89794    5.45025
     328      444        4    -0.34820   12.69760   19.31400    4.77187
     329      444        3     0.59852   13.46291    0.08000   17.46814
     330      444        3    -0.00084   12.82608    0.11127   16.14155
     331      444        3    -0.18942   12.85632    1.27829   15.36056
     332      444        3    -0.18942   19.56617   18.82502   15.60667
     333      444        3     0.15364   12.29142    1.25124   14.09232
     334      444        3     0.15364   19.02093   18.89690   14.33029
     335      444        3     0.59852   19.88990    9.32608    8.54443
     336      444        3    -0.00084   18.61883    9.02457    7.82080
     337      444        3    -0.00084   17.42074    8.93491    8.55812
     338      444        3    -0.18942   16.23433    8.69268    7.85494
     339      444        3    -0.00084   16.21124    8.54854    6.46265
     340      444        3    -0.18942   17.42194    8.63927    5.76443
     341      444        3    -0.00084   18.63565    8.87319    6.41919
     342      444        4     0.09106   17.42810    9.14230   10.06830
     343      444        4    -0.34820   17.27234   10.63571   10.41404
     344      444        4    -0.34820   16.37806    8.30871   10.81277
     345      444        4     0.09106   14.89772    8.32550    5.73128
     346      444        4    -0.34820   14.49352    9.57543    4.93124
     347      444        4    -0.34820   14.93430    7.08657    4.82486
     348      444        4     0.09106   19.93687    9.01985    5.64078
     349      444        4    -0.34820    5.25533    8.03337    4.47317
     350      444        4    -0.34820   20.10898   10.46961    5.15194
     351      444        3     0.59852   20.85989    9.84908   12.30171
     352      444        3    -0.00084   20.21929    9.82049   13.62671
     353      444        3    -0.18942   20.24573    8.65423   14.40908
     354      444        3    -0.18942   19.59349   10.96035   14.15921
     355      444        3     0.15364   19.67835    8.68357   15.67613
     356      444        3     0.15364   19.04600   10.89073   15.43479
     357      444        3     0.59852   16.16808   18.47214   10.52201
     358      444        3    -0.00084   14.89691   17.74846   10.82368
     359      444        3    -0.00084   13.69322   18.48647   10.89613
     360      444        3    -0.18942   12.51208   17.78416   11.15414
     361      444        3    -0.00084   12.48876   16.39213   11.30141
     362      444        3    -0.18942   13.69923   15.69334   11.21249
     363      444        3    -0.00084   14.91337   16.34731   10.97829
     364      444        4     0.09106    6.34079    0.14411   10.70222
     365      444        4    -0.34820    6.18599    0.48768    9.20832