Created on Tue Feb 06 14:26:27 2018 

        2112 atoms
        2592 bonds
        5568 angles
        6624 dihedrals

           5 atom types
           5 bond types
          10 angle types
           4 dihedral types
           0.000000  25.734000 xlo xhi
           0.000000  27.731997 ylo yhi
           0.000000  39.693993 zlo zhi
           0.012100  -1.988914 -13.783306 xy xz yz

Masses

    1    63.546000000 # Cu3+1
    2    30.973762000 # P_3+5
    3     1.007940000 # H_
    4    12.010700000 # C_3
    5    15.999400000 # O_3_z

Bond Coeffs

    1      240.260104        1.773900  # Cu3+1 O_3_z
    2      572.196304        1.563412  # P_3+5 O_3_z
    3      305.050255        1.812946  # P_3+5 C_3
    4      331.069389        1.109401  # H_ C_3
    5      349.795899        1.514000  # C_3 C_3

Angle Coeffs

    1       61.242870        0.343737        0.374972        0.281246 # O_3_z Cu3+1 O_3_z
    2      115.168344        0.343737        0.374972        0.281246 # O_3_z P_3+5 O_3_z
    3       64.908356        0.343737        0.374972        0.281246 # O_3_z P_3+5 C_3
    4       59.282363        0.343737        0.374972        0.281246 # H_ C_3 P_3+5
    5       61.342703        0.343737        0.374972        0.281246 # H_ C_3 H_
    6       69.847816        0.343737        0.374972        0.281246 # H_ C_3 C_3
    7       86.781059        0.343737        0.374972        0.281246 # P_3+5 C_3 C_3
    8       93.452663        0.343737        0.374972        0.281246 # C_3 C_3 C_3
    9       40.136923        1.898490        2.651251        0.799497 # P_3+5 O_3_z Cu3+1
   10       18.088125        1.898490        2.651251        0.799497 # Cu3+1 O_3_z Cu3+1

Dihedral Coeffs

    1        0.136931               1               2 # C_3 P_3+5 O_3_z Cu3+1
    2        0.070473               1               3 # O_3_z P_3+5 C_3 H_
    3        0.091287               1               2 # O_3_z P_3+5 O_3_z Cu3+1
    4        0.066219               1               3 # H_ C_3 C_3 H_

Pair Coeffs

    1        0.005000        3.113691 # Cu3+1 Cu3+1
    2        0.305000        3.694557 # P_3+5 P_3+5
    3        0.044000        2.571134 # H_ H_
    4        0.105000        3.430851 # C_3 C_3
    5        0.060000        3.118146 # O_3_z O_3_z

Atoms

       1      444        1     1.04713    1.89854   -1.71915    4.96274
       2      444        1     1.04713    1.39919   -5.15122   14.88743
       3      444        1     1.04713    1.90210    5.21412    4.96274
       4      444        1     1.04713    1.40155    1.78233   14.88703
       5      444        1     1.04713    6.18721   -1.71910    4.96254
       6      444        1     1.04713    5.68805   -5.15111   14.88743
       7      444        1     1.04713    6.19087    5.21426    4.96274
       8      444        1     1.04713    5.69056    1.78234   14.88703
       9      444        1     1.04713    1.90137    1.74728    4.96254
      10      444        1     1.04713    1.40239   -1.68543   14.88505
      11      444        1     1.04713    1.90356    8.67975    4.96195
      12      444        1     1.04713    1.40499    5.24749   14.88465
      13      444        1     1.04713    6.19019    1.74732    4.96254
      14      444        1     1.04713    5.69126   -1.68541   14.88505
      15      444        1     1.04713    6.19226    8.67983    4.96195
      16      444        1     1.04713    5.69425    5.24744   14.88465
      17      444        2     1.44404    4.04340    0.01485    3.50776
      18      444        2     1.44404    3.54522   -3.41920   13.43126
      19      444        2     1.44404    4.04647    6.94674    3.50736
      20      444        2     1.44404    3.54753    3.51386   13.43106
      21      444        2     1.44404    8.33226    0.01470    3.50776
      22      444        2     1.44404    7.83394   -3.41919   13.43145
      23      444        2     1.44404    8.33535    6.94688    3.50756
      24      444        2     1.44404    7.83651    3.51389   13.43066
      25      444        2     1.44404   -0.24355    3.48077    6.41634
      26      444        2     1.44404   -0.74304    0.04895   16.34023
      27      444        2     1.44404   -0.24126   10.41281    6.41634
      28      444        2     1.44404   -0.73950    6.98358   16.33408
      29      444        2     1.44404    4.04546    3.48099    6.41634
      30      444        2     1.44404    3.54573    0.04884   16.34023
      31      444        2     1.44404    4.04746   10.41294    6.41653
      32      444        2     1.44404    3.54910    6.98142   16.34003
      33      444        3     0.13381    1.20925    6.06026    1.87653
      34      444        3     0.13381    0.71399    2.62725   11.80321
      35      444        3     0.13381    1.21378   12.99710    1.87614
      36      444        3     0.13381    0.71761    9.56121   11.80301
      37      444        3     0.13381    5.49775    6.05983    1.87554
      38      444        3     0.13381    5.00282    2.62713   11.80360
      39      444        3     0.13381    5.50275   12.99774    1.87614
      40      444        3     0.13381    5.00702    9.56102   11.80460
      41      444        3     0.13381    3.25137    6.05959    0.70874
      42      444        3     0.13381    2.75648    2.61449   10.63581
      43      444        3     0.13381    3.25478   12.99381    0.70953
      44      444        3     0.13381    2.76018    9.54750   10.63700
      45      444        3     0.13381    7.54030    6.05938    0.70933
      46      444        3     0.13381    7.04516    2.61460   10.63561
      47      444        3     0.13381    7.54347   12.99393    0.70973
      48      444        3     0.13381    7.04845    9.54770   10.63700
      49      444        3     0.13381    2.59064    2.60388    8.05173
      50      444        3     0.13381    2.09031   -0.83200   17.97205
      51      444        3     0.13381    2.59422    9.53469    8.05232
      52      444        3     0.13381    2.09385    6.10039   17.97225
      53      444        3     0.13381    6.87929    2.60361    8.05133
      54      444        3     0.13381    6.37902   -0.83146   17.97225
      55      444        3     0.13381    6.88283    9.53472    8.05212
      56      444        3     0.13381    6.38278    6.10046   17.97205
      57      444        3     0.13381    0.54719    2.60722    9.22191
      58      444        3     0.13381    0.04695   -0.83885   19.14124
      59      444        3     0.13381    0.55041    9.53972    9.22310
      60      444        3     0.13381    0.04986    6.09477   19.14183
      61      444        3     0.13381    4.83631    2.60738    9.22230
      62      444        3     0.13381    4.33597   -0.83897   19.14084
      63      444        3     0.13381    4.83979    9.53995    9.22270
      64      444        3     0.13381    4.33921    6.09505   19.14183
      65      444        3     0.13381    2.58481   -2.57257    8.04597
      66      444        3     0.13381    2.08849   -6.00670   17.97304
      67      444        3     0.13381    2.58908    4.36302    8.04558
      68      444        3     0.13381    2.09163    0.92731   17.97384
      69      444        3     0.13381    6.87383   -2.57258    8.04577
      70      444        3     0.13381    6.37767   -6.00272   17.96153
      71      444        3     0.13381    6.87772    4.36325    8.04399
      72      444        3     0.13381    6.38098    0.92774   17.97404
      73      444        3     0.13381    0.54422   -2.56201    9.21238
      74      444        3     0.13381    0.04886   -6.00705   19.13905
      75      444        3     0.13381    0.54741    4.37202    9.21218
      76      444        3     0.13381    0.05207    0.92590   19.14005
      77      444        3     0.13381    4.83333   -2.56158    9.21218
      78      444        3     0.13381    4.33769   -6.00656   19.13886
      79      444        3     0.13381    4.83644    4.37203    9.21278
      80      444        3     0.13381    4.34100    0.92590   19.13945
      81      444        3     0.13381    1.20949    0.88988    1.87197
      82      444        3     0.13381    0.71038   -2.54511   11.78912
      83      444        3     0.13381    1.21423    7.81954    1.87177
      84      444        3     0.13381    0.71285    4.38644   11.79249
      85      444        3     0.13381    5.49796    0.89046    1.87177
      86      444        3     0.13381    4.99924   -2.54623   11.79348
      87      444        3     0.13381    5.50357    7.81876    1.87157
      88      444        3     0.13381    5.00176    4.38634   11.79289
      89      444        3     0.13381    3.25078    0.89197    0.70437
      90      444        3     0.13381    2.75184   -2.55404   10.62469
      91      444        3     0.13381    3.25468    7.82436    0.70536
      92      444        3     0.13381    2.75425    4.37927   10.62410
      93      444        3     0.13381    7.53992    0.89205    0.70477
      94      444        3     0.13381    7.04037   -2.55404   10.62449
      95      444        3     0.13381    7.54317    7.82425    0.70556
      96      444        3     0.13381    7.04311    4.37943   10.62390
      97      444        4    -0.42459    0.54739    0.01094    1.88169
      98      444        4    -0.42459    0.04956   -3.42647   11.80559
      99      444        4    -0.42459    0.55052    6.94186    1.88150
     100      444        4    -0.42459    0.05213    3.50654   11.80479
     101      444        4    -0.42459    4.83602    0.01137    1.88150
     102      444        4    -0.42459    4.33884   -3.42643   11.80559
     103      444        4    -0.42459    4.83937    6.94143    1.88130
     104      444        4    -0.42459    4.34103    3.50642   11.80539
     105      444        4     0.00922    3.90532    0.00876    0.66487
     106      444        4     0.00922    3.40829   -3.43595   10.58877
     107      444        4     0.00922    3.90846    6.94065    0.66487
     108      444        4     0.00922    3.41087    3.49746   10.58837
     109      444        4     0.00922    8.19426    0.00868    0.66527
     110      444        4     0.00922    7.69685   -3.43593   10.58877
     111      444        4     0.00922    8.19715    6.94067    0.66527
     112      444        4     0.00922    7.69958    3.49751   10.58798
     113      444        4    -0.42459    3.25122    3.48397    8.04180
     114      444        4    -0.42459    2.75223    0.04718   17.96590
     115      444        4    -0.42459    3.25384   10.41556    8.04240
     116      444        4    -0.42459    2.75540    6.97986   17.96570
     117      444        4    -0.42459    7.53978    3.48381    8.04161
     118      444        4    -0.42459    7.04132    0.04741   17.96610
     119      444        4    -0.42459    7.54266   10.41538    8.04220
     120      444        4    -0.42459    7.04425    6.97997   17.96550
     121      444        4     0.00922   -0.10816    3.48996    9.25862
     122      444        4     0.00922   -0.60592    0.04550   19.18272
     123      444        4     0.00922   -0.10514   10.42237    9.25922
     124      444        4     0.00922   -0.60317    6.97910   19.18232
     125      444        4     0.00922    4.18080    3.49002    9.25902
     126      444        4     0.00922    3.68311    0.04540   19.18232
     127      444        4     0.00922    4.18430   10.42279    9.25862
     128      444        4     0.00922    3.68606    6.97931   19.18212
     129      444        5    -0.78855    3.25034    5.63837    3.63934
     130      444        5    -0.78855    2.75073    2.20633   13.56423
     131      444        5    -0.78855    3.25314   12.57301    3.63954
     132      444        5    -0.78855    2.75435    9.13981   13.56443
     133      444        5    -0.78855    7.53914    5.63852    3.63954
     134      444        5    -0.78855    7.03963    2.20643   13.56403
     135      444        5    -0.78855    7.54200   12.57281    3.63954
     136      444        5    -0.78855    7.04306    9.13988   13.56443
     137      444        5    -0.78855    0.55107    2.17123    6.28594
     138      444        5    -0.78855    0.05312   -1.25939   16.20865
     139      444        5    -0.78855    0.55315    9.10314    6.28535
     140      444        5    -0.78855    0.05621    5.67315   16.20845
     141      444        5    -0.78855    4.84021    2.17166    6.28554
     142      444        5    -0.78855    4.34189   -1.25943   16.20845
     143      444        5    -0.78855    4.84198    9.10341    6.28535
     144      444        5    -0.78855    4.34520    5.67314   16.20825
     145      444        5    -0.78855    0.54798   -2.14457    6.28475
     146      444        5    -0.78855    0.04828   -5.57475   16.20904
     147      444        5    -0.78855    0.55141    4.79003    6.28495
     148      444        5    -0.78855    0.05107    1.35885   16.20964
     149      444        5    -0.78855    4.83674   -2.14404    6.28356
     150      444        5    -0.78855    4.33728   -5.57500   16.20904
     151      444        5    -0.78855    4.84021    4.79042    6.28495
     152      444        5    -0.78855    4.33985    1.35878   16.20944
     153      444        5    -0.78855    3.24917    1.32482    3.63776
     154      444        5    -0.78855    2.75090   -2.10940   13.56066
     155      444        5    -0.78855    3.25199    8.25660    3.63716
     156      444        5    -0.78855    2.75355    4.82386   13.56026
     157      444        5    -0.78855    7.53804    1.32472    3.63756
     158      444        5    -0.78855    7.03995   -2.10879   13.55947
     159      444        5    -0.78855    7.54096    8.25677    3.63736
     160      444        5    -0.78855    7.04249    4.82383   13.56006
     161      444        5    -0.84328    0.93694    0.01490    4.57573
     162      444        5    -0.84328    0.43827   -3.41803   14.49962
     163      444        5    -0.84328    0.94002    6.94763    4.57533
     164      444        5    -0.84328    0.44052    3.51526   14.49902
     165      444        5    -0.84328    5.22589    0.01505    4.57553
     166      444        5    -0.84328    4.72676   -3.41789   14.49982
     167      444        5    -0.84328    5.22878    6.94774    4.57513
     168      444        5    -0.84328    4.72951    3.51527   14.49902
     169      444        5    -0.84328    2.86327    3.48004    5.34857
     170      444        5    -0.84328    2.36334    0.04854   15.27246
     171      444        5    -0.84328    2.86553   10.41272    5.34817
     172      444        5    -0.84328    2.36670    6.98136   15.27226
     173      444        5    -0.84328    7.15225    3.48011    5.34817
     174      444        5    -0.84328    6.65227    0.04862   15.27266
     175      444        5    -0.84328    7.15436   10.41275    5.34817
     176      444        5    -0.84328    6.65556    6.98133   15.27226
     177      444        1     1.04713    0.90408   -8.61081   24.80974
     178      444        1     1.04713    0.40473  -12.04288   34.73443
     179      444        1     1.04713    0.90764   -1.67753   24.80974
     180      444        1     1.04713    0.40709   -5.10932   34.73403
     181      444        1     1.04713    5.19275   -8.61075   24.80954
     182      444        1     1.04713    4.69360  -12.04276   34.73443
     183      444        1     1.04713    5.19642   -1.67739   24.80974
     184      444        1     1.04713    4.69610   -5.10931   34.73403
     185      444        1     1.04713    0.90692   -5.14438   24.80954
     186      444        1     1.04713    0.40793   -8.57709   34.73205
     187      444        1     1.04713    0.90911    1.78809   24.80894
     188      444        1     1.04713    0.41053   -1.64416   34.73165
     189      444        1     1.04713    5.19574   -5.14433   24.80954
     190      444        1     1.04713    4.69681   -8.57706   34.73205
     191      444        1     1.04713    5.19781    1.78818   24.80894
     192      444        1     1.04713    4.69979   -1.64421   34.73165
     193      444        2     1.44404    3.04895   -6.87680   23.35475
     194      444        2     1.44404    2.55076  -10.31086   33.27825
     195      444        2     1.44404    3.05202    0.05509   23.35436
     196      444        2     1.44404    2.55307   -3.37779   33.27805
     197      444        2     1.44404    7.33780   -6.87695   23.35475
     198      444        2     1.44404    6.83948  -10.31084   33.27845
     199      444        2     1.44404    7.34090    0.05523   23.35456
     200      444        2     1.44404    6.84205   -3.37776   33.27766
     201      444        2     1.44404   -1.23801   -3.41088   26.26333
     202      444        2     1.44404   -1.73749   -6.84271   36.18723
     203      444        2     1.44404   -1.23572    3.52116   26.26333
     204      444        2     1.44404   -1.73395    0.09193   36.18107
     205      444        2     1.44404    3.05101   -3.41066   26.26333
     206      444        2     1.44404    2.55128   -6.84282   36.18723
     207      444        2     1.44404    3.05301    3.52128   26.26353
     208      444        2     1.44404    2.55464    0.08977   36.18703
     209      444        3     0.13381    0.21479   -0.83139   21.72353
     210      444        3     0.13381   -0.28047   -4.26440   31.65020
     211      444        3     0.13381    0.21932    6.10545   21.72313
     212      444        3     0.13381   -0.27685    2.66955   31.65001
     213      444        3     0.13381    4.50329   -0.83183   21.72254
     214      444        3     0.13381    4.00837   -4.26453   31.65060
     215      444        3     0.13381    4.50829    6.10608   21.72313
     216      444        3     0.13381    4.01257    2.66936   31.65159
     217      444        3     0.13381    2.25691   -0.83207   20.55573
     218      444        3     0.13381    1.76202   -4.27716   30.48280
     219      444        3     0.13381    2.26033    6.10216   20.55653
     220      444        3     0.13381    1.76572    2.65585   30.48399
     221      444        3     0.13381    6.54584   -0.83227   20.55633
     222      444        3     0.13381    6.05070   -4.27705   30.48260
     223      444        3     0.13381    6.54902    6.10228   20.55672
     224      444        3     0.13381    6.05399    2.65605   30.48399
     225      444        3     0.13381    1.59618   -4.28777   27.89872
     226      444        3     0.13381    1.09586   -7.72365   37.81905
     227      444        3     0.13381    1.59977    2.64303   27.89932
     228      444        3     0.13381    1.09939   -0.79126   37.81925
     229      444        3     0.13381    5.88483   -4.28804   27.89833
     230      444        3     0.13381    5.38456   -7.72311   37.81925
     231      444        3     0.13381    5.88837    2.64306   27.89912
     232      444        3     0.13381    5.38832   -0.79119   37.81905
     233      444        3     0.13381   -0.44727   -4.28444   29.06890
     234      444        3     0.13381   -0.94750   -7.73051   38.98823
     235      444        3     0.13381   -0.44405    2.64807   29.07009
     236      444        3     0.13381   -0.94459   -0.79688   38.98883
     237      444        3     0.13381    3.84185   -4.28427   29.06930
     238      444        3     0.13381    3.34151   -7.73062   38.98784
     239      444        3     0.13381    3.84534    2.64830   29.06970
     240      444        3     0.13381    3.34475   -0.79660   38.98883
     241      444        3     0.13381    1.59035   -9.46423   27.89297
     242      444        3     0.13381    1.09403  -12.89836   37.82004
     243      444        3     0.13381    1.59462   -2.52864   27.89257
     244      444        3     0.13381    1.09717   -5.96434   37.82083
     245      444        3     0.13381    5.87937   -9.46423   27.89277
     246      444        3     0.13381    5.38321  -12.89437   37.80853
     247      444        3     0.13381    5.88326   -2.52840   27.89098
     248      444        3     0.13381    5.38652   -5.96391   37.82103
     249      444        3     0.13381   -0.45024   -9.45366   29.05938
     250      444        3     0.13381   -0.94560  -12.89870   38.98605
     251      444        3     0.13381   -0.44705   -2.51963   29.05918
     252      444        3     0.13381   -0.94238   -5.96576   38.98704
     253      444        3     0.13381    3.83888   -9.45323   29.05918
     254      444        3     0.13381    3.34323  -12.89822   38.98585
     255      444        3     0.13381    3.84198   -2.51962   29.05977
     256      444        3     0.13381    3.34654   -5.96576   38.98645
     257      444        3     0.13381    0.21503   -6.00177   21.71897
     258      444        3     0.13381   -0.28407   -9.43677   31.63611
     259      444        3     0.13381    0.21977    0.92789   21.71877
     260      444        3     0.13381   -0.28161   -2.50522   31.63949
     261      444        3     0.13381    4.50350   -6.00119   21.71877
     262      444        3     0.13381    4.00479   -9.43788   31.64048
     263      444        3     0.13381    4.50911    0.92711   21.71857
     264      444        3     0.13381    4.00730   -2.50531   31.63988
     265      444        3     0.13381    2.25633   -5.99968   20.55137
     266      444        3     0.13381    1.75739   -9.44570   30.47169
     267      444        3     0.13381    2.26022    0.93271   20.55236
     268      444        3     0.13381    1.75979   -2.51238   30.47109
     269      444        3     0.13381    6.54546   -5.99960   20.55176
     270      444        3     0.13381    6.04592   -9.44570   30.47149
     271      444        3     0.13381    6.54871    0.93260   20.55256
     272      444        3     0.13381    6.04865   -2.51223   30.47090
     273      444        4    -0.42459   -0.44707   -6.88072   21.72869
     274      444        4    -0.42459   -0.94489  -10.31813   31.65259
     275      444        4    -0.42459   -0.44394    0.05020   21.72849
     276      444        4    -0.42459   -0.94233   -3.38511   31.65179
     277      444        4    -0.42459    3.84156   -6.88029   21.72849
     278      444        4    -0.42459    3.34438  -10.31808   31.65259
     279      444        4    -0.42459    3.84492    0.04977   21.72829
     280      444        4    -0.42459    3.34658   -3.38524   31.65239
     281      444        4     0.00922    2.91086   -6.88289   20.51187
     282      444        4     0.00922    2.41384  -10.32761   30.43577
     283      444        4     0.00922    2.91401    0.04900   20.51187
     284      444        4     0.00922    2.41641   -3.39419   30.43537
     285      444        4     0.00922    7.19980   -6.88297   20.51227
     286      444        4     0.00922    6.70239  -10.32758   30.43577
     287      444        4     0.00922    7.20270    0.04901   20.51227
     288      444        4     0.00922    6.70512   -3.39414   30.43497
     289      444        4    -0.42459    2.25676   -3.40768   27.88880
     290      444        4    -0.42459    1.75777   -6.84448   37.81289
     291      444        4    -0.42459    2.25939    3.52391   27.88940
     292      444        4    -0.42459    1.76095    0.08820   37.81270
     293      444        4    -0.42459    6.54532   -3.40785   27.88860
     294      444        4    -0.42459    6.04686   -6.84424   37.81309
     295      444        4    -0.42459    6.54820    3.52373   27.88920
     296      444        4    -0.42459    6.04979    0.08831   37.81250
     297      444        4     0.00922   -1.10262   -3.40169   29.10562
     298      444        4     0.00922   -1.60038   -6.84616   39.02971
     299      444        4     0.00922   -1.09959    3.53071   29.10622
     300      444        4     0.00922   -1.59763    0.08745   39.02932
     301      444        4     0.00922    3.18635   -3.40164   29.10602
     302      444        4     0.00922    2.68865   -6.84626   39.02932
     303      444        4     0.00922    3.18984    3.53114   29.10562
     304      444        4     0.00922    2.69161    0.08766   39.02912
     305      444        5    -0.78855    2.25588   -1.25328   23.48634
     306      444        5    -0.78855    1.75628   -4.68532   33.41123
     307      444        5    -0.78855    2.25868    5.68135   23.48654
     308      444        5    -0.78855    1.75989    2.24816   33.41143
     309      444        5    -0.78855    6.54468   -1.25313   23.48654
     310      444        5    -0.78855    6.04517   -4.68523   33.41103
     311      444        5    -0.78855    6.54755    5.68116   23.48654
     312      444        5    -0.78855    6.04860    2.24823   33.41143
     313      444        5    -0.78855   -0.44338   -4.72043   26.13294
     314      444        5    -0.78855   -0.94134   -8.15104   36.05564
     315      444        5    -0.78855   -0.44131    2.21149   26.13234
     316      444        5    -0.78855   -0.93825   -1.21850   36.05544
     317      444        5    -0.78855    3.84575   -4.72000   26.13254
     318      444        5    -0.78855    3.34743   -8.15108   36.05544
     319      444        5    -0.78855    3.84752    2.21175   26.13234
     320      444        5    -0.78855    3.35074   -1.21852   36.05524
     321      444        5    -0.78855   -0.44648   -9.03622   26.13175
     322      444        5    -0.78855   -0.94618  -12.46640   36.05604
     323      444        5    -0.78855   -0.44305   -2.10163   26.13194
     324      444        5    -0.78855   -0.94338   -5.53281   36.05663
     325      444        5    -0.78855    3.84228   -9.03570   26.13056
     326      444        5    -0.78855    3.34282  -12.46665   36.05604
     327      444        5    -0.78855    3.84576   -2.10124   26.13194
     328      444        5    -0.78855    3.34540   -5.53288   36.05644
     329      444        5    -0.78855    2.25471   -5.56683   23.48475
     330      444        5    -0.78855    1.75644   -9.00105   33.40766
     331      444        5    -0.78855    2.25753    1.36495   23.48416
     332      444        5    -0.78855    1.75909   -2.06779   33.40726
     333      444        5    -0.78855    6.54358   -5.56693   23.48455
     334      444        5    -0.78855    6.04549   -9.00045   33.40646
     335      444        5    -0.78855    6.54650    1.36511   23.48436
     336      444        5    -0.78855    6.04803   -2.06782   33.40706
     337      444        5    -0.84328   -0.05752   -6.87675   24.42272
     338      444        5    -0.84328   -0.55619  -10.30968   34.34662
     339      444        5    -0.84328   -0.05444    0.05598   24.42232
     340      444        5    -0.84328   -0.55394   -3.37640   34.34602
     341      444        5    -0.84328    4.23143   -6.87660   24.42252
     342      444        5    -0.84328    3.73231  -10.30955   34.34682
     343      444        5    -0.84328    4.23432    0.05609   24.42213
     344      444        5    -0.84328    3.73505   -3.37638   34.34602
     345      444        5    -0.84328    1.86881   -3.41161   25.19556
     346      444        5    -0.84328    1.36889   -6.84311   35.11946
     347      444        5    -0.84328    1.87107    3.52107   25.19517
     348      444        5    -0.84328    1.37224    0.08970   35.11926
     349      444        5    -0.84328    6.15779   -3.41154   25.19517
     350      444        5    -0.84328    5.65782   -6.84303   35.11966
     351      444        5    -0.84328    6.15991    3.52110   25.19517
     352      444        5    -0.84328    5.66110    0.08968   35.11926
     353      444        1     1.04713    1.90459   12.14685    4.96274
     354      444        1     1.04713    1.40524    8.71478   14.88743
     355      444        1     1.04713    1.90815   19.08012    4.96274
     356      444        1     1.04713    1.40760   15.64833   14.88703
     357      444        1     1.04713    6.19326   12.14690    4.96254
     358      444        1     1.04713    5.69410    8.71489   14.88743
     359      444        1     1.04713    6.19692   19.08026    4.96274
     360      444        1     1.04713    5.69661   15.64834   14.88703
     361      444        1     1.04713    1.90742   15.61328    4.96254
     362      444        1     1.04713    1.40844   12.18056   14.88505
     363      444        1     1.04713    1.90961   22.54575    4.96195
     364      444        1     1.04713    1.41104   19.11349   14.88465
     365      444        1     1.04713    6.19624   15.61332    4.96254
     366      444        1     1.04713    5.69731   12.18059   14.88505
     367      444        1     1.04713    6.19831   22.54583    4.96195
     368      444        1     1.04713    5.70030   19.11344   14.88465
     369      444        2     1.44404    4.04945   13.88085    3.50776
     370      444        2     1.44404    3.55127   10.44680   13.43126
     371      444        2     1.44404    4.05252   20.81274    3.50736
     372      444        2     1.44404    3.55358   17.37986   13.43106
     373      444        2     1.44404    8.33831   13.88070    3.50776
     374      444        2     1.44404    7.83999   10.44681   13.43145
     375      444        2     1.44404    8.34140   20.81288    3.50756
     376      444        2     1.44404    7.84256   17.37989   13.43066
     377      444        2     1.44404   -0.23750   17.34677    6.41634
     378      444        2     1.44404   -0.73699   13.91495   16.34023
     379      444        2     1.44404   -0.23521   24.27881    6.41634
     380      444        2     1.44404   -0.73345   20.84958   16.33408
     381      444        2     1.44404    4.05151   17.34699    6.41634
     382      444        2     1.44404    3.55178   13.91483   16.34023
     383      444        2     1.44404    4.05352   24.27893    6.41653
     384      444        2     1.44404    3.55515   20.84742   16.34003