Created on Tue Feb 06 15:55:24 2018 

        1872 atoms
        2304 bonds
        4560 angles
        3840 dihedrals
        2304 impropers

           5 atom types
           7 bond types
          11 angle types
           3 dihedral types
           1 improper types
           0.000000  30.880000 xlo xhi
           0.000000  35.580000 ylo yhi
           0.000000  33.912458 zlo zhi
           0.002484  -0.002558 -13.861517 xy xz yz

Masses

    1    65.380000000 # Zn3+2
    2     1.007940000 # H_
    3    12.010700000 # C_R
    4    15.999400000 # O_3_z
    5    15.999400000 # O_R

Bond Coeffs

    1      206.072830        1.692429  # Zn3+2 O_3_z
    2      160.291409        1.840266  # Zn3+2 O_R
    3      850.878848        0.861362  # H_ O_3_z
    4      357.440381        1.081418  # H_ C_R
    5      391.669513        1.458000  # C_R C_R
    6      646.680887        1.311940  # C_R O_R
    7      462.655054        1.379256  # C_R C_R

Angle Coeffs

    1                      fourier       62.467680        0.343737        0.374972        0.281246 # O_R Zn3+2 O_3_z
    2                      fourier       50.968023        0.343737        0.374972        0.281246 # O_R Zn3+2 O_R
    3                      fourier       77.472685        0.343737        0.374972        0.281246 # O_3_z Zn3+2 O_3_z
    4              cosine/periodic      217.450257              -1               3 # O_R C_R O_R
    5              cosine/periodic      137.761490              -1               3 # C_R C_R O_R
    6              cosine/periodic      101.626578              -1               3 # C_R C_R C_R
    7              cosine/periodic      117.010657              -1               3 # C_R C_R C_R
    8              cosine/periodic       76.817955              -1               3 # C_R C_R H_
    9                      fourier       12.695596        1.898490        2.651251        0.799497 # Zn3+2 O_3_z Zn3+2
   10                      fourier       30.309018        1.898490        2.651251        0.799497 # Zn3+2 O_3_z H_
   11              cosine/periodic       50.430477              -1               3 # C_R O_R Zn3+2

Dihedral Coeffs

    1        0.555556              -1               2 # O_R C_R C_R C_R
    2        2.245703              -1               2 # C_R C_R O_R Zn3+2
    3        1.497136              -1               2 # C_R C_R C_R H_

Improper Coeffs

    1        2.000000        1.000000       -1.000000        0.000000               0 # O_R C_R C_R O_R

Pair Coeffs

    1        0.124000        2.461553 # Zn3+2 Zn3+2
    2        0.044000        2.571134 # H_ H_
    3        0.105000        3.430851 # C_R C_R
    4        0.060000        3.118146 # O_3_z O_3_z
    5        0.060000        3.118146 # O_R O_R

Atoms

       1      444        1     1.18766    7.72001    3.16191   14.14183
       2      444        1     1.09437    1.49202   -1.10364    2.82830
       3      444        1     1.09437    9.24909    1.93041   16.89841
       4      444        1     1.09437   13.89716   -1.15245    2.81948
       5      444        1     1.18766    0.00039   13.12729   11.29268
       6      444        1     1.09437    9.21256    6.53332    5.64982
       7      444        1     1.09437    1.52912   -3.43226    8.53627
       8      444        1     1.09437    6.17743    6.58117    5.65829
       9      444        1     1.18766    7.72011    7.69740    2.81456
      10      444        1     1.09437   13.94814   11.96315   14.12793
      11      444        1     1.09437    6.19098    8.92862    0.05799
      12      444        1     1.09437    1.54300   12.01046   14.13658
      13      444        1     1.18766   15.43910   -2.26799    5.66355
      14      444        1     1.09437    6.22760    4.32609   11.30641
      15      444        1     1.09437   13.91112   14.29141    8.41995
      16      444        1     1.09437    9.26273    4.27794   11.29777
      17      444        1     1.18766   15.43995   10.85910   16.95606
      18      444        1     1.18766    7.72007    5.42953    8.47811
      19      444        2     0.45551    7.73998    2.22785   11.82460
      20      444        2     0.45551    7.74284    4.04184   16.49298
      21      444        2     0.45551   15.35147    0.95195    2.32300
      22      444        2     0.10090   12.84692   -2.69465   13.67113
      23      444        2     0.10090   11.53839   -1.15423   15.13513
      24      444        2     0.10090    9.60131    0.48951   11.66775
      25      444        2     0.10090   10.96042   -1.00421   10.20019
      26      444        2     0.10090    1.62858    7.71256   14.78702
      27      444        2     0.10090    3.13697    6.39575   13.28588
      28      444        2     0.10090    6.14370    6.34848   16.35242
      29      444        2     0.10090    4.63715   14.60019    0.89681
      30      444        2     0.10090   10.47356    5.00454   16.51893
      31      444        2     0.10090   11.64423   13.57896    1.03569
      32      444        2     0.10090   12.67504    9.00943   14.55065
      33      444        2     0.10090   11.49284    7.37687   13.07766
      34      444        2     0.45551   -0.00090   -3.72918   13.61009
      35      444        2     0.45551    0.00044   12.24705    8.94170
      36      444        2     0.45551    7.63183    4.47761    6.15477
      37      444        2     0.10090    5.12691    1.19301   11.76321
      38      444        2     0.10090    3.81873   -0.34744   10.29837
      39      444        2     0.10090    1.88141   -1.99123   13.76693
      40      444        2     0.10090    3.24022   -0.49712   15.23432
      41      444        2     0.10090    9.35036    8.57615   10.64783
      42      444        2     0.10090   10.85927    9.89276   12.14863
      43      444        2     0.10090   13.86607    9.93816    9.08210
      44      444        2     0.10090   12.35751    8.61753    7.58164
      45      444        2     0.10090    2.75416   11.28487    8.91559
      46      444        2     0.10090    3.92340    9.64140    7.44209
      47      444        2     0.10090    4.95483    7.27921   10.88336
      48      444        2     0.10090    3.77268    8.91165   12.35634
      49      444        2     0.45551    7.70006    8.63174    5.13095
      50      444        2     0.45551    7.69731    6.81732    0.46341
      51      444        2     0.45551    0.08843    9.90738   14.63323
      52      444        2     0.10090    2.59312   13.55415    3.28442
      53      444        2     0.10090    3.90150   12.01378    1.81991
      54      444        2     0.10090    5.83862   10.36959    5.28848
      55      444        2     0.10090    4.47961   11.86368    6.75536
      56      444        2     0.10090   13.81131    3.14649    2.16938
      57      444        2     0.10090   12.30286    4.46321    3.67051
      58      444        2     0.10090    9.29620    4.51053    0.60398
      59      444        2     0.10090   10.80283   -3.74109   16.05958
      60      444        2     0.10090    4.96651    5.85541    0.43578
      61      444        2     0.10090    3.79582   -2.71953   15.92037
      62      444        2     0.10090    2.76493    1.84995    2.40541
      63      444        2     0.10090    3.94716    3.48244    3.87840
      64      444        2     0.45551   15.42076   14.58849    3.34614
      65      444        2     0.45551   15.41624   -1.38791    8.01470
      66      444        2     0.45551    7.80853    6.38165   10.80129
      67      444        2     0.10090   10.31326    9.66637    5.19285
      68      444        2     0.10090   11.62157   11.20662    6.65786
      69      444        2     0.10090   13.55872   12.85053    3.18930
      70      444        2     0.10090   12.19981   11.35650    1.72191
      71      444        2     0.10090    6.08951    2.28335    6.30840
      72      444        2     0.10090    4.58055    0.96675    4.80760
      73      444        2     0.10090    1.57383    0.92134    7.87430
      74      444        2     0.10090    3.08244    2.24195    9.37476
      75      444        2     0.10090   12.68598   -0.42576    8.04064
      76      444        2     0.10090   11.51674    1.21779    9.51397
      77      444        2     0.10090   10.48510    3.58006    6.07203
      78      444        2     0.10090   11.66722    1.94729    4.59972
      79      444        3     0.70858   12.87080   -2.78317   10.96915
      80      444        3    -0.12736   12.00808   -1.92206   11.84053
      81      444        3    -0.05279   12.15004   -1.98057   13.23705
      82      444        3    -0.05279   11.41095   -1.13208   14.05536
      83      444        3    -0.12736   10.48907   -0.23425   13.49411
      84      444        3     0.70858    9.70252    0.69479   14.36905
      85      444        3    -0.05279   10.31817   -0.20518   12.10149
      86      444        3    -0.05279   11.07823   -1.03349   11.28166
      87      444        3     0.70858    2.13599   15.50397    0.34269
      88      444        3    -0.12736    3.03999    7.77408   16.41024
      89      444        3    -0.05279    2.62135    7.41498   15.12021
      90      444        3    -0.05279    3.45879    6.68183   14.28562
      91      444        3    -0.12736    4.73358    6.29206   14.72767
      92      444        3     0.70858    5.63466    5.49068   13.83577
      93      444        3    -0.05279    5.15189    6.64936   16.01838
      94      444        3    -0.05279    4.31499    7.38472   16.85263
      95      444        3     0.70858   10.17306    5.13178   13.83204
      96      444        3    -0.12736   10.90695    6.09572   14.70783
      97      444        3    -0.05279   10.95006    5.88636   16.09434
      98      444        3    -0.05279   11.60954    6.79390   16.91469
      99      444        3    -0.12736   12.24426    7.91660   16.36174
     100      444        3     0.70858   12.98959   15.79769    0.28707
     101      444        3    -0.05279   12.19768    8.12845   14.97574
     102      444        3    -0.05279   11.53429    7.22310   14.15455
     103      444        3     0.70858    5.15061    1.28246   14.46366
     104      444        3    -0.12736    4.28801    0.42116   13.59245
     105      444        3    -0.05279    4.43009    0.47882   12.19746
     106      444        3    -0.05279    3.69119   -0.36925   11.37763
     107      444        3    -0.12736    2.76936   -1.26769   11.94041
     108      444        3     0.70858    1.98289   -2.19694   11.06564
     109      444        3    -0.05279    2.59828   -1.29651   13.33302
     110      444        3    -0.05279    3.35817   -0.46802   14.15286
     111      444        3     0.70858    9.85573    7.71551    8.13560
     112      444        3    -0.12736   10.76164    8.51402    9.02444
     113      444        3    -0.05279   10.34322    8.87335   10.31447
     114      444        3    -0.05279   11.18093    9.60636   11.14889
     115      444        3    -0.12736   12.45580    9.99574   10.70667
     116      444        3     0.70858   13.35654   10.79763   11.59857
     117      444        3    -0.05279   12.87409    9.63785    9.41613
     118      444        3    -0.05279   12.03687    8.90258    8.58223
     119      444        3     0.70858    2.45334   11.15714   11.60247
     120      444        3    -0.12736    3.18718   10.19324   10.72651
     121      444        3    -0.05279    3.23049   10.40286    9.34017
     122      444        3    -0.05279    3.88995    9.49577    8.51881
     123      444        3    -0.12736    4.52445    8.37258    9.07226
     124      444        3     0.70858    5.26829    7.42228    8.19037
     125      444        3    -0.05279    4.47768    8.16042   10.45826
     126      444        3    -0.05279    3.81431    9.06565   11.27962
     127      444        3     0.70858    2.56933   13.64243    5.98707
     128      444        3    -0.12736    3.43196   12.78189    5.11417
     129      444        3    -0.05279    3.28997   12.83974    3.71918
     130      444        3    -0.05279    4.02897   11.99116    2.90087
     131      444        3    -0.12736    4.95083   11.09335    3.46212
     132      444        3     0.70858    5.73740   10.16429    2.58718
     133      444        3    -0.05279    5.12178   11.06430    4.85474
     134      444        3    -0.05279    4.36178   11.89273    5.67440
     135      444        3     0.70858   13.30410   -4.63912   16.60015
     136      444        3    -0.12736   12.39998    3.08511    0.54599
     137      444        3    -0.05279   12.81854    3.44412    1.83602
     138      444        3    -0.05279   11.98108    4.17723    2.67061
     139      444        3    -0.12736   10.70631    4.56702    2.22856
     140      444        3     0.70858    9.80531    5.36844    3.12062
     141      444        3    -0.05279   10.28801    4.20974    0.93785
     142      444        3    -0.05279   11.12496    3.47435    0.10377
     143      444        3     0.70858    5.26705    5.72746    3.12419
     144      444        3    -0.12736    4.53310    4.76773    2.23822
     145      444        3    -0.05279    4.49000    4.97297    0.86189
     146      444        3    -0.05279    3.83050    4.06550    0.04137
     147      444        3    -0.12736    3.19578    2.94277    0.59432
     148      444        3     0.70858    2.45056   -4.93798   16.66797
     149      444        3    -0.05279    3.24231    2.73091    1.98032
     150      444        3    -0.05279    3.90572    3.63618    2.80168
     151      444        3     0.70858   10.28949    9.57752    2.49087
     152      444        3    -0.12736   11.15210   10.43824    3.36361
     153      444        3    -0.05279   11.01009   10.38045    4.75877
     154      444        3    -0.05279   11.74905   11.22917    5.57690
     155      444        3    -0.12736   12.67091   12.12696    5.01565
     156      444        3     0.70858   13.45746   13.05605    5.89059
     157      444        3    -0.05279   12.84186   12.15587    3.62304
     158      444        3    -0.05279   12.08192   11.32735    2.80337
     159      444        3     0.70858    5.58430    3.14390    8.82063
     160      444        3    -0.12736    4.67830    2.34547    7.93178
     161      444        3    -0.05279    5.09666    1.98614    6.64175
     162      444        3    -0.05279    4.25894    1.25308    5.80751
     163      444        3    -0.12736    2.98407    0.86426    6.24837
     164      444        3     0.70858    2.08338    0.06179    5.35783
     165      444        3    -0.05279    2.56581    1.22161    7.54027
     166      444        3    -0.05279    3.40306    1.95687    8.37417
     167      444        3     0.70858   12.98678   -0.29806    5.35376
     168      444        3    -0.12736   12.25285    0.66584    6.22955
     169      444        3    -0.05279   12.20958    0.45621    7.61606
     170      444        3    -0.05279   11.55013    1.36364    8.43657
     171      444        3    -0.12736   10.91561    2.48650    7.88380
     172      444        3     0.70858   10.17179    3.43681    8.76569
     173      444        3    -0.05279   10.96228    2.69860    6.49780
     174      444        3    -0.05279   11.62564    1.79335    5.67644
     175      444        4    -1.00032    7.72931    3.17431   12.05859
     176      444        4    -1.00032    7.71963    3.10666   16.21812
     177      444        4    -1.00032   15.39253    0.01187    2.06832
     178      444        5    -0.62457    5.21053    5.31706   12.62832
     179      444        5    -0.62457    2.57152   15.71855    1.53895
     180      444        5    -0.62457   12.85581   -2.50341    9.70405
     181      444        5    -0.62457    8.68828    1.27349   13.88529
     182      444        5    -0.62457    6.72924    5.05632   14.29715
     183      444        5    -0.62457   13.56138    9.86576   16.72681
     184      444        5    -0.62457   10.13325    0.82266   15.57904
     185      444        5    -0.62457    1.02115    8.96916   16.84737
     186      444        5    -0.62457   13.54820   -3.70066   11.50599
     187      444        5    -0.62457    9.60362    4.13525   14.35955
     188      444        5    -0.62457   12.98485   15.51102    1.54810
     189      444        5    -0.62457   10.18239    5.40269   12.56897
     190      444        4    -1.00032   -0.00095   -4.67560   13.37592
     191      444        4    -1.00032    0.00049   13.18236    9.21622
     192      444        4    -1.00032    7.67268    5.41764    6.40962
     193      444        5    -0.62457   12.93197   10.97170   12.80568
     194      444        5    -0.62457   10.29097    7.50139    6.93917
     195      444        5    -0.62457    5.13540    1.00267   15.72928
     196      444        5    -0.62457    0.96794   -2.77456   11.54889
     197      444        5    -0.62457   14.45099   11.23245   11.13702
     198      444        5    -0.62457    5.84136    6.42329    8.70702
     199      444        5    -0.62457    2.41441   -2.32591    9.85598
     200      444        5    -0.62457    8.74214    7.31984    8.58731
     201      444        5    -0.62457    5.82815    2.19924   13.92836
     202      444        5    -0.62457    1.88430   12.15406   11.07496
     203      444        5    -0.62457    5.26380    7.70911    6.92950
     204      444        5    -0.62457    2.46247   10.88601   12.86537
     205      444        4    -1.00032    7.71081    7.68499    4.89764
     206      444        4    -1.00032    7.72048    7.75277    0.73760
     207      444        4    -1.00032    0.04754   10.84746   14.88791
     208      444        5    -0.62457   10.22948    5.54241    4.32723
     209      444        5    -0.62457   12.86866   -4.85899   15.41728
     210      444        5    -0.62457    2.58432   13.36303    7.25099
     211      444        5    -0.62457    6.75188    9.58593    3.07094
     212      444        5    -0.62457    8.71077    5.80297    2.65908
     213      444        5    -0.62457    1.87877    0.99353    0.22925
     214      444        5    -0.62457    5.30647   10.03608    1.37718
     215      444        5    -0.62457   14.41894    1.89020    0.10886
     216      444        5    -0.62457    1.89201   14.56006    5.45024
     217      444        5    -0.62457    5.83641    6.72417    2.59668
     218      444        5    -0.62457    2.45535   -4.65180   15.40796
     219      444        5    -0.62457    5.25785    5.45639    4.38709
     220      444        4    -1.00032   15.43130   15.53492    3.58031
     221      444        4    -1.00032   15.43938   -2.32316    7.74001
     222      444        4    -1.00032    7.76755    5.44217   10.54508
     223      444        5    -0.62457    2.50803   -0.11219    4.15055
     224      444        5    -0.62457    5.14910    3.35812   10.01706
     225      444        5    -0.62457   10.30467    9.85659    1.22678
     226      444        5    -0.62457   14.47221   13.63409    5.40700
     227      444        5    -0.62457    0.98894   -0.37301    5.81921
     228      444        5    -0.62457    9.59871    4.43577    8.24904
     229      444        5    -0.62457   13.02617   13.18465    7.10042
     230      444        5    -0.62457    6.69797    3.53934    8.36892
     231      444        5    -0.62457    9.61194    8.66016    3.02787
     232      444        5    -0.62457   13.55594   -1.29480    5.88127
     233      444        5    -0.62457   10.17628    3.14997   10.02656
     234      444        5    -0.62457   12.97757   -0.02668    4.08984
     235      444        1     1.18766    7.71873   -3.76885   31.09806
     236      444        1     1.09437    1.49074   -8.03440   19.78453
     237      444        1     1.09437    9.24781   -5.00035   33.85464
     238      444        1     1.09437   13.89588   -8.08321   19.77571
     239      444        1     1.18766   -0.00089    6.19653   28.24891
     240      444        1     1.09437    9.21128   -0.39744   22.60604
     241      444        1     1.09437    1.52785  -10.36302   25.49250
     242      444        1     1.09437    6.17615   -0.34958   22.61452
     243      444        1     1.18766    7.71883    0.76664   19.77079
     244      444        1     1.09437   13.94687    5.03239   31.08416
     245      444        1     1.09437    6.18970    1.99786   17.01422
     246      444        1     1.09437    1.54172    5.07970   31.09281
     247      444        1     1.18766   15.43782   -9.19875   22.61978
     248      444        1     1.09437    6.22633   -2.60467   28.26264
     249      444        1     1.09437   13.90984    7.36065   25.37618
     250      444        1     1.09437    9.26146   -2.65282   28.25400
     251      444        1     1.18766   15.43867    3.92834   33.91229
     252      444        1     1.18766    7.71880   -1.50123   25.43434
     253      444        2     0.45551    7.73870   -4.70291   28.78083
     254      444        2     0.45551    7.74156   -2.88892   33.44921
     255      444        2     0.45551   15.35019   -5.97881   19.27923
     256      444        2     0.10090   12.84564   -9.62540   30.62736
     257      444        2     0.10090   11.53711   -8.08499   32.09136
     258      444        2     0.10090    9.60004   -6.44125   28.62398
     259      444        2     0.10090   10.95914   -7.93497   27.15642
     260      444        2     0.10090    1.62730    0.78180   31.74325
     261      444        2     0.10090    3.13569   -0.53501   30.24211
     262      444        2     0.10090    6.14242   -0.58227   33.30865
     263      444        2     0.10090    4.63587    7.66944   17.85304
     264      444        2     0.10090   10.47228   -1.92622   33.47516
     265      444        2     0.10090   11.64296    6.64821   17.99192
     266      444        2     0.10090   12.67377    2.07867   31.50688
     267      444        2     0.10090   11.49156    0.44611   30.03389
     268      444        2     0.45551   -0.00218  -10.65994   30.56632
     269      444        2     0.45551   -0.00084    5.31629   25.89793
     270      444        2     0.45551    7.63055   -2.45315   23.11100
     271      444        2     0.10090    5.12563   -5.73775   28.71944
     272      444        2     0.10090    3.81745   -7.27820   27.25459
     273      444        2     0.10090    1.88013   -8.92199   30.72316
     274      444        2     0.10090    3.23894   -7.42788   32.19055
     275      444        2     0.10090    9.34908    1.64539   27.60406
     276      444        2     0.10090   10.85799    2.96200   29.10486
     277      444        2     0.10090   13.86479    3.00740   26.03832
     278      444        2     0.10090   12.35623    1.68677   24.53787
     279      444        2     0.10090    2.75288    4.35411   25.87181
     280      444        2     0.10090    3.92212    2.71064   24.39832
     281      444        2     0.10090    4.95355    0.34845   27.83958
     282      444        2     0.10090    3.77140    1.98089   29.31257
     283      444        2     0.45551    7.69878    1.70098   22.08718
     284      444        2     0.45551    7.69603   -0.11344   17.41964
     285      444        2     0.45551    0.08715    2.97662   31.58945
     286      444        2     0.10090    2.59184    6.62339   20.24065
     287      444        2     0.10090    3.90022    5.08302   18.77614
     288      444        2     0.10090    5.83734    3.43883   22.24471
     289      444        2     0.10090    4.47833    4.93292   23.71159
     290      444        2     0.10090   13.81003   -3.78427   19.12561
     291      444        2     0.10090   12.30158   -2.46755   20.62674
     292      444        2     0.10090    9.29492   -2.42023   17.56021
     293      444        2     0.10090   10.80155  -10.67185   33.01581
     294      444        2     0.10090    4.96523   -1.07535   17.39200
     295      444        2     0.10090    3.79454   -9.65029   32.87660
     296      444        2     0.10090    2.76366   -5.08081   19.36164
     297      444        2     0.10090    3.94588   -3.44832   20.83463
     298      444        2     0.45551   15.41948    7.65773   20.30237
     299      444        2     0.45551   15.41496   -8.31867   24.97093
     300      444        2     0.45551    7.80725   -0.54911   27.75752
     301      444        2     0.10090   10.31198    2.73561   22.14907
     302      444        2     0.10090   11.62029    4.27587   23.61409
     303      444        2     0.10090   13.55744    5.91977   20.14553
     304      444        2     0.10090   12.19853    4.42574   18.67813
     305      444        2     0.10090    6.08823   -4.64741   23.26462
     306      444        2     0.10090    4.57927   -5.96401   21.76383
     307      444        2     0.10090    1.57256   -6.00942   24.83053
     308      444        2     0.10090    3.08116   -4.68881   26.33099
     309      444        2     0.10090   12.68470   -7.35651   24.99687
     310      444        2     0.10090   11.51546   -5.71297   26.47020
     311      444        2     0.10090   10.48382   -3.35070   23.02825
     312      444        2     0.10090   11.66594   -4.98347   21.55595
     313      444        3     0.70858   12.86952   -9.71393   27.92538
     314      444        3    -0.12736   12.00680   -8.85282   28.79676
     315      444        3    -0.05279   12.14876   -8.91132   30.19328
     316      444        3    -0.05279   11.40967   -8.06284   31.01159
     317      444        3    -0.12736   10.48779   -7.16501   30.45034
     318      444        3     0.70858    9.70124   -6.23597   31.32528
     319      444        3    -0.05279   10.31689   -7.13594   29.05772
     320      444        3    -0.05279   11.07695   -7.96425   28.23789
     321      444        3     0.70858    2.13471    8.57322   17.29891
     322      444        3    -0.12736    3.03871    0.84332   33.36647
     323      444        3    -0.05279    2.62007    0.48422   32.07644
     324      444        3    -0.05279    3.45751   -0.24893   31.24185
     325      444        3    -0.12736    4.73230   -0.63870   31.68390
     326      444        3     0.70858    5.63338   -1.44008   30.79200
     327      444        3    -0.05279    5.15061   -0.28140   32.97461
     328      444        3    -0.05279    4.31371    0.45396   33.80886
     329      444        3     0.70858   10.17179   -1.79898   30.78827
     330      444        3    -0.12736   10.90567   -0.83503   31.66406
     331      444        3    -0.05279   10.94878   -1.04440   33.05057
     332      444        3    -0.05279   11.60826   -0.13686   33.87092
     333      444        3    -0.12736   12.24298    0.98584   33.31797
     334      444        3     0.70858   12.98831    8.86693   17.24330
     335      444        3    -0.05279   12.19640    1.19770   31.93197
     336      444        3    -0.05279   11.53301    0.29234   31.11078
     337      444        3     0.70858    5.14933   -5.64830   31.41989
     338      444        3    -0.12736    4.28673   -6.50960   30.54868
     339      444        3    -0.05279    4.42881   -6.45193   29.15369
     340      444        3    -0.05279    3.68991   -7.30001   28.33386
     341      444        3    -0.12736    2.76809   -8.19845   28.89664
     342      444        3     0.70858    1.98161   -9.12769   28.02186
     343      444        3    -0.05279    2.59701   -8.22726   30.28925
     344      444        3    -0.05279    3.35689   -7.39878   31.10908
     345      444        3     0.70858    9.85445    0.78475   25.09183
     346      444        3    -0.12736   10.76036    1.58327   25.98067
     347      444        3    -0.05279   10.34194    1.94259   27.27070
     348      444        3    -0.05279   11.17965    2.67560   28.10512
     349      444        3    -0.12736   12.45452    3.06498   27.66290
     350      444        3     0.70858   13.35526    3.86687   28.55480
     351      444        3    -0.05279   12.87281    2.70709   26.37236
     352      444        3    -0.05279   12.03559    1.97182   25.53845
     353      444        3     0.70858    2.45206    4.22638   28.55870
     354      444        3    -0.12736    3.18590    3.26249   27.68274
     355      444        3    -0.05279    3.22921    3.47210   26.29640
     356      444        3    -0.05279    3.88868    2.56502   25.47504
     357      444        3    -0.12736    4.52317    1.44182   26.02849
     358      444        3     0.70858    5.26701    0.49153   25.14660
     359      444        3    -0.05279    4.47640    1.22966   27.41449
     360      444        3    -0.05279    3.81303    2.13490   28.23585
     361      444        3     0.70858    2.56805    6.71167   22.94330
     362      444        3    -0.12736    3.43068    5.85114   22.07040
     363      444        3    -0.05279    3.28869    5.90898   20.67541
     364      444        3    -0.05279    4.02769    5.06040   19.85710
     365      444        3    -0.12736    4.94955    4.16259   20.41835
     366      444        3     0.70858    5.73612    3.23354   19.54341
     367      444        3    -0.05279    5.12050    4.13354   21.81097
     368      444        3    -0.05279    4.36050    4.96197   22.63063
     369      444        3     0.70858   13.30282  -11.56987   33.55638
     370      444        3    -0.12736   12.39870   -3.84565   17.50222
     371      444        3    -0.05279   12.81726   -3.48664   18.79225
     372      444        3    -0.05279   11.97980   -2.75352   19.62684
     373      444        3    -0.12736   10.70503   -2.36374   19.18479
     374      444        3     0.70858    9.80403   -1.56232   20.07685
     375      444        3    -0.05279   10.28674   -2.72102   17.89408
     376      444        3    -0.05279   11.12368   -3.45641   17.06000
     377      444        3     0.70858    5.26577   -1.20329   20.08041
     378      444        3    -0.12736    4.53182   -2.16303   19.19445