Created on Tue Feb 06 14:45:30 2018 

        2176 atoms
        2560 bonds
        4608 angles
        5120 dihedrals
        3840 impropers

           4 atom types
           4 bond types
           7 angle types
           1 dihedral types
           1 improper types
           0.000000  31.652000 xlo xhi
           0.000000  31.610000 ylo yhi
           0.000000  37.274000 zlo zhi
           0.002207  -0.001301   0.000000 xy xz yz

Masses

    1    65.380000000 # Zn3+2
    2     1.007940000 # H_
    3    12.010700000 # C_R
    4    14.006700000 # N_R

Bond Coeffs

    1      165.837318        1.881712  # Zn3+2 N_R
    2      357.440381        1.081418  # H_ C_R
    3      462.655054        1.379256  # C_R C_R
    4      663.718927        1.345073  # C_R N_R

Angle Coeffs

    1                      fourier       55.784590        0.343737        0.374972        0.281246 # N_R Zn3+2 N_R
    2              cosine/periodic       76.817955              -1               3 # H_ C_R C_R
    3              cosine/periodic      109.704024              -1               3 # H_ C_R N_R
    4              cosine/periodic      165.695700              -1               3 # C_R C_R N_R
    5              cosine/periodic      234.844275              -1               3 # N_R C_R N_R
    6              cosine/periodic      132.654363              -1               3 # C_R N_R C_R
    7              cosine/periodic       36.261492              -1               3 # Zn3+2 N_R C_R

Dihedral Coeffs

    1        1.497136              -1               2 # H_ C_R C_R H_

Improper Coeffs

    1        2.000000        1.000000       -1.000000        0.000000               0 # H_ C_R C_R N_R

Pair Coeffs

    1        0.124000        2.461553 # Zn3+2 Zn3+2
    2        0.044000        2.571134 # H_ H_
    3        0.105000        3.430851 # C_R C_R
    4        0.069000        3.260689 # N_R N_R

Atoms

       1      444        1     0.73467   11.01712   13.57490    7.50773
       2      444        1     0.73467    7.97388   13.16495   12.69552
       3      444        1     0.73467   12.72176    2.22967   16.82604
       4      444        1     0.73467   15.76544    2.63981    3.37833
       5      444        1     0.73467    4.80963    5.67259    1.81058
       6      444        1     0.73467    7.85187    5.26264   15.25867
       7      444        1     0.73467    3.10359   10.13203   11.12908
       8      444        1     0.73467    0.06095   10.54209    5.93998
       9      444        1     0.73467    4.80896    2.22974   11.12908
      10      444        1     0.73467    7.85219    2.63969    5.94017
      11      444        1     0.73467    3.10432   13.57496    1.81058
      12      444        1     0.73467    0.06064   13.16482   15.25811
      13      444        1     0.73467   11.01644   10.13203   16.82604
      14      444        1     0.73467    7.97420   10.54200    3.37796
      15      444        1     0.73467   12.72243    5.67265    7.50754
      16      444        1     0.73467   15.76510    5.26254   12.69664
      17      444        2     0.07791   13.96362   15.05711    7.80238
      18      444        2     0.07791    0.41405   13.64499    7.08448
      19      444        2     0.07791   10.57772   10.31388    7.88923
      20      444        2     0.07791   11.66946   15.09091    4.72150
      21      444        2     0.07791   12.38064   14.55516   10.28986
      22      444        2     0.07791    8.57848   12.91611    9.49555
      23      444        2     0.07791   10.95476   14.35274   12.66664
      24      444        2     0.07791    9.07207   13.04191    5.05305
      25      444        2     0.07791    9.15234    8.92284    5.95396
      26      444        2     0.07791   10.08950    1.42469    3.90016
      27      444        2     0.07791    8.83540    0.15516    7.71758
      28      444        2     0.07791   12.84415   11.24096    6.40423
      29      444        2     0.07791    9.77540    0.74685   17.11883
      30      444        2     0.07791    7.49903    2.15904   16.40112
      31      444        2     0.07791   13.16258    5.49028   17.20866
      32      444        2     0.07791   12.06950    0.71393   14.03981
      33      444        2     0.07791   11.35918    1.24871    0.97117
      34      444        2     0.07791   15.16047    2.88993    0.17761
      35      444        2     0.07791   12.78481    1.45133    3.34814
      36      444        2     0.07791   14.66625    2.76271   14.37080
      37      444        2     0.07791   14.58823    6.88150   15.27377
      38      444        2     0.07791   13.64961   14.38032   13.21829
      39      444        2     0.07791   14.90278   15.64881   17.03645
      40      444        2     0.07791   10.89453    4.56447   15.72441
      41      444        2     0.07791    1.86312    7.15484    1.51593
      42      444        2     0.07791   15.41268    5.74283    2.23271
      43      444        2     0.07791    5.24615    2.41102    1.43039
      44      444        2     0.07791    4.15728    7.18898    4.59663
      45      444        2     0.07791    3.44637    6.65654   17.66583
      46      444        2     0.07791    7.24626    5.01180   18.45920
      47      444        2     0.07791    4.87224    6.45416   15.28905
      48      444        2     0.07791    6.75622    5.13958    4.26396
      49      444        2     0.07791    6.67129    1.01990    3.36566
      50      444        2     0.07791    5.73618    9.32754    5.41778
      51      444        2     0.07791    6.99096    8.05720    1.60092
      52      444        2     0.07791    2.98243    3.33903    2.91501
      53      444        2     0.07791    6.04976    8.64921   10.83667
      54      444        2     0.07791    8.32618   10.06126   11.55457
      55      444        2     0.07791    2.66330   13.39286   10.74647
      56      444        2     0.07791    3.75575    8.61594   13.91532
      57      444        2     0.07791    4.46570    9.14684    8.34751
      58      444        2     0.07791    0.66684   10.79407    9.14033
      59      444        2     0.07791    3.04013    9.34964    5.97074
      60      444        2     0.07791    1.15846   10.66513   13.58358
      61      444        2     0.07791    1.23793   14.78411   12.68155
      62      444        2     0.07791    2.17668    6.47754   14.73665
      63      444        2     0.07791    0.92270    7.74701   10.91755
      64      444        2     0.07791    4.93089   12.46665   12.23165
      65      444        2     0.07791    1.86235    0.74751   10.83425
      66      444        2     0.07791   15.41195    2.15964   11.55121
      67      444        2     0.07791    5.24772    5.49085   10.73491
      68      444        2     0.07791    4.15674    0.71386   13.91532
      69      444        2     0.07791    3.44531    1.24970    8.34677
      70      444        2     0.07791    7.24759    2.88843    9.14126
      71      444        2     0.07791    4.87121    1.45208    5.96999
      72      444        2     0.07791    6.75405    2.76273   13.58358
      73      444        2     0.07791    6.67317    6.88189   12.68304
      74      444        2     0.07791    5.73672   14.38010   14.73665
      75      444        2     0.07791    6.99049   15.64932   10.91905
      76      444        2     0.07791    2.98186    4.56357   12.23258
      77      444        2     0.07791    6.05069   15.05766    1.51742
      78      444        2     0.07791    8.32704   13.64548    2.23514
      79      444        2     0.07791    2.66311   10.31447    1.42797
      80      444        2     0.07791    3.75648   15.09071    4.59588
      81      444        2     0.07791    4.46694   14.55579   17.66545
      82      444        2     0.07791    0.66550   12.91488   18.45920
      83      444        2     0.07791    3.04128   14.35322   15.28849
      84      444        2     0.07791    1.15997   13.04195    4.26601
      85      444        2     0.07791    1.23742    8.92325    3.36267
      86      444        2     0.07791    2.17633    1.42428    5.41834
      87      444        2     0.07791    0.92332    0.15590    1.60017
      88      444        2     0.07791    4.93151   11.24034    2.91259
      89      444        2     0.07791   13.96292    8.64992   17.12088
      90      444        2     0.07791    0.41338   10.06194   16.40280
      91      444        2     0.07791   10.57960   13.39355   17.20642
      92      444        2     0.07791   11.66859    8.61581   14.04000
      93      444        2     0.07791   12.37964    9.14803    0.97099
      94      444        2     0.07791    8.57977   10.79281    0.17742
      95      444        2     0.07791   10.95377    9.35046    3.34776
      96      444        2     0.07791    9.06982   10.66502   14.36913
      97      444        2     0.07791    9.15446   14.78468   15.27116
      98      444        2     0.07791   10.08964    6.47728   13.21866
      99      444        2     0.07791    8.83506    7.74747   17.03571
     100      444        2     0.07791   12.84358   12.46558   15.72143
     101      444        2     0.07791    9.77614    7.15540    7.79958
     102      444        2     0.07791    7.49975    5.74332    7.08243
     103      444        2     0.07791   13.16246    2.41181    7.88997
     104      444        2     0.07791   12.07013    7.18884    4.72150
     105      444        2     0.07791   11.36021    6.65749   10.28911
     106      444        2     0.07791   15.15928    5.01077    9.49630
     107      444        2     0.07791   12.78579    6.45468   12.66608
     108      444        2     0.07791   14.66740    5.13953    5.05305
     109      444        2     0.07791   14.58792    1.02053    5.95508
     110      444        2     0.07791   13.64927    9.32718    3.89998
     111      444        2     0.07791   14.90340    8.05758    7.71740
     112      444        2     0.07791   10.89515    3.33816    6.40498
     113      444        3    -0.03270   14.06595   14.05256    7.40634
     114      444        3    -0.03270   15.19597   13.35276    7.04665
     115      444        3    -0.03270   10.05264   10.67598    7.01161
     116      444        3    -0.03270   10.84474   15.58823    5.22078
     117      444        3    -0.03270   11.37260   14.20011   10.47474
     118      444        3     0.23511    9.41327   13.35426   10.03360
     119      444        3    -0.03270   10.66737   14.10144   11.64999
     120      444        3     0.23511    9.28630   12.10739    5.56128
     121      444        3    -0.03270    9.34484    9.98588    6.05348
     122      444        3    -0.03270   10.06170    0.84106    4.81412
     123      444        3     0.23511    9.39335    0.20961    6.78834
     124      444        3     0.23511   13.45921   12.08823    6.68919
     125      444        3    -0.03270    9.67299    1.75175   16.72298
     126      444        3    -0.03270    8.54297    2.45156   16.36329
     127      444        3    -0.03270   13.68728    5.12831   16.33086
     128      444        3    -0.03270   12.89407    0.21645   14.53928
     129      444        3    -0.03270   12.36700    1.60425    1.15605
     130      444        3     0.23511   14.32589    2.45120    0.71547
     131      444        3    -0.03270   13.07214    1.70305    2.33149
     132      444        3     0.23511   14.45255    3.69712   14.87959
     133      444        3    -0.03270   14.39523    5.81850   15.37273
     134      444        3    -0.03270   13.67721   14.96372   14.13244
     135      444        3     0.23511   14.34509   15.59462   16.10721
     136      444        3     0.23511   10.27954    3.71680   16.00844
     137      444        3    -0.03270    1.76077    6.15036    1.91216
     138      444        3    -0.03270    0.63075    5.45061    2.27166
     139      444        3    -0.03270    5.77216    2.77321    2.30726
     140      444        3    -0.03270    4.98215    7.68613    4.09734
     141      444        3    -0.03270    4.45393    6.30025   17.48076
     142      444        3     0.23511    6.41209    5.45144   17.92134
     143      444        3    -0.03270    5.15919    6.20163   16.30365
     144      444        3     0.23511    6.54076    4.20492    3.75647
     145      444        3    -0.03270    6.47981    2.08308    3.26558
     146      444        3    -0.03270    5.76417    8.74374    4.50400
     147      444        3     0.23511    6.43284    8.11185    2.52997
     148      444        3     0.23511    2.36737    4.18624    2.62987
     149      444        3    -0.03270    6.15223    9.65403   11.23196
     150      444        3    -0.03270    7.28227   10.35382   11.59128
     151      444        3    -0.03270    2.13841   13.03089   11.62408
     152      444        3    -0.03270    2.93101    8.11865   13.41603
     153      444        3    -0.03270    3.45839    9.50375    8.16114
     154      444        3     0.23511    1.50077   10.35379    8.60265
     155      444        3    -0.03270    2.75328    9.60260    6.98552
     156      444        3     0.23511    1.37252   11.59957   13.07516
     157      444        3    -0.03270    1.43059   13.72106   12.58221
     158      444        3    -0.03270    2.14888    7.06115   13.82269
     159      444        3     0.23511    1.48063    7.69255   11.84829
     160      444        3     0.23511    5.54584   11.61901   11.94744
     161      444        3    -0.03270    1.76002    1.75205   11.23028
     162      444        3    -0.03270    0.63002    2.45185   11.58979
     163      444        3    -0.03270    5.77298    5.12874   11.62520
     164      444        3    -0.03270    4.98140    0.21650   13.41584
     165      444        3    -0.03270    4.45337    1.60467    8.16114
     166      444        3     0.23511    6.41277    2.45034    8.60303
     167      444        3    -0.03270    5.15863    1.70332    6.98515
     168      444        3     0.23511    6.53964    3.69728   13.07553
     169      444        3    -0.03270    6.48079    5.81882   12.58184
     170      444        3    -0.03270    5.76445   14.96367   13.82250
     171      444        3     0.23511    6.43263   15.59495   11.84829
     172      444        3     0.23511    2.36678    3.71631   11.94762
     173      444        3    -0.03270    6.15308   14.05284    1.91216
     174      444        3    -0.03270    7.28311   13.35301    2.27185
     175      444        3    -0.03270    2.13852   10.67640    2.30577
     176      444        3    -0.03270    2.93192   15.58819    4.09753
     177      444        3    -0.03270    3.45907   14.20032   17.48057
     178      444        3     0.23511    1.50012   13.35353   17.92115
     179      444        3    -0.03270    2.75393   14.10154   16.30365
     180      444        3     0.23511    1.37354   12.10756    3.75722
     181      444        3    -0.03270    1.43056    9.98623    3.26371
     182      444        3    -0.03270    2.14879    0.84091    4.50419
     183      444        3     0.23511    1.48099    0.21006    2.52904
     184      444        3     0.23511    5.54651   12.08793    2.62838
     185      444        3    -0.03270   14.06527    9.65436   16.72466
     186      444        3    -0.03270   15.19530   10.35412   16.36515
     187      444        3    -0.03270   10.05368   13.03138   16.32955
     188      444        3    -0.03270   10.84375    8.11863   14.53928
     189      444        3    -0.03270   11.37208    9.50434    1.15587
     190      444        3     0.23511    9.41394   10.35314    0.71529
     191      444        3    -0.03270   10.66684    9.60299    2.33279
     192      444        3     0.23511    9.28521   11.59967   14.88034
     193      444        3    -0.03270    9.34602   13.72151   15.37124
     194      444        3    -0.03270   10.06170    7.06106   14.13262
     195      444        3     0.23511    9.39313    7.69285   16.10665
     196      444        3     0.23511   13.45864   11.61841   16.00676
     197      444        3    -0.03270    9.67372    6.15061    7.40485
     198      444        3    -0.03270    8.54369    5.45081    7.04479
     199      444        3    -0.03270   13.68741    2.77378    7.01236
     200      444        3    -0.03270   12.89494    7.68607    5.22078
     201      444        3    -0.03270   12.36757    6.30069   10.47418
     202      444        3     0.23511   14.32530    5.45092   10.03397
     203      444        3    -0.03270   13.07268    6.20185   11.65111
     204      444        3     0.23511   14.45332    4.20508    5.56147
     205      444        3    -0.03270   14.39526    2.08359    6.05423
     206      444        3    -0.03270   13.67708    8.74355    4.81412
     207      444        3     0.23511   14.34546    8.11206    6.78834
     208      444        3     0.23511   10.28017    4.18575    6.68919
     209      444        4    -0.38539   12.96475   13.24416    7.17748
     210      444        4    -0.38539   10.01269   12.02443    6.69478
     211      444        4    -0.38539   10.41656   15.19156    6.47710
     212      444        4    -0.38539   10.57259   13.72484    9.44877
     213      444        4    -0.38539    9.42327   13.56469   11.36615
     214      444        4    -0.38539    8.85730   10.90155    5.13524
     215      444        4    -0.38539    9.14045    1.10731    5.81400
     216      444        4    -0.38539   14.80440   12.10467    6.59191
     217      444        4    -0.38539   10.77413    2.56058   16.49598
     218      444        4    -0.38539   13.72651    3.77997   16.01328
     219      444        4    -0.38539   13.32198    0.61276   15.79579
     220      444        4    -0.38539   13.16683    2.08019    0.13046
     221      444        4    -0.38539   14.31598    2.24052    2.04783
     222      444        4    -0.38539   14.88207    4.90296   14.45411
     223      444        4    -0.38539   14.59816   14.69718   15.13250
     224      444        4    -0.38539    8.93441    3.70016   15.91041
     225      444        4    -0.38539    2.86199    5.34204    2.14120
     226      444        4    -0.38539    5.81373    4.12183    2.62334
     227      444        4    -0.38539    5.41051    7.28919    2.84121
     228      444        4    -0.38539    5.25320    5.82305   18.50635
     229      444        4    -0.38539    6.40253    5.66301   16.58917
     230      444        4    -0.38539    6.96884    2.99892    4.18214
     231      444        4    -0.38539    6.68571    9.00974    3.50432
     232      444        4    -0.38539    1.02219    4.20257    2.72659
     233      444        4    -0.38539    5.05114   10.46286   11.45989
     234      444        4    -0.38539    2.09866   11.68250   11.94147
     235      444        4    -0.38539    2.50288    8.51528   12.15952
     236      444        4    -0.38539    2.65938    9.98165    9.13213
     237      444        4    -0.38539    1.51024   10.14202    7.27048
     238      444        4    -0.38539    0.94338   12.80550   13.50064
     239      444        4    -0.38539    1.22760    6.79492   12.82282
     240      444        4    -0.38539    6.89098   11.60239   12.04509
     241      444        4    -0.38539    2.86126    2.56041   11.45915
     242      444        4    -0.38539    5.81316    3.78026   11.94203
     243      444        4    -0.38539    5.40947    0.61306   12.15952
     244      444        4    -0.38539    5.25342    2.07984    9.18785
     245      444        4    -0.38539    6.40275    2.23998    7.27067
     246      444        4    -0.38539    6.96858    4.90314   13.50139
     247      444        4    -0.38539    6.68561   14.69732   12.82226
     248      444        4    -0.38539    1.02161    3.69992   12.04491
     249      444        4    -0.38539    5.05192   13.24410    2.14065
     250      444        4    -0.38539    2.09945   12.02471    2.62334
     251      444        4    -0.38539    2.50406   15.19189    2.84084
     252      444        4    -0.38539    2.65922   13.72448   18.50617
     253      444        4    -0.38539    1.51007   13.56417   16.58879
     254      444        4    -0.38539    0.94389   10.90174    4.18252
     255      444        4    -0.38539    1.22786    1.10746    3.50413
     256      444        4    -0.38539    6.89166   12.10450    2.72622
     257      444        4    -0.38539   12.96404   10.46263   16.49542
     258      444        4    -0.38539   10.01221   11.68276   16.01347
     259      444        4    -0.38539   10.41548    8.51550   15.79542
     260      444        4    -0.38539   10.57284    9.98154    0.13027
     261      444        4    -0.38539    9.42352   10.14161    2.04746
     262      444        4    -0.38539    8.85709   12.80567   14.45393
     263      444        4    -0.38539    9.14024    6.79498   15.13231
     264      444        4    -0.38539   14.80383   11.60210   15.90966
     265      444        4    -0.38539   10.77484    5.34187    7.17692
     266      444        4    -0.38539   13.72719    4.12217    6.69516
     267      444        4    -0.38539   13.32312    7.28942    6.47710
     268      444        4    -0.38539   13.16664    5.82296    9.44877
     269      444        4    -0.38539   14.31579    5.66258   11.36615
     270      444        4    -0.38539   14.88253    2.99917    5.13598
     271      444        4    -0.38539   14.59842    9.00974    5.81381
     272      444        4    -0.38539    8.93501    4.20231    6.59135
     273      444        1     0.73467   11.01647   13.57490   26.14473
     274      444        1     0.73467    7.97323   13.16495   31.33252
     275      444        1     0.73467   12.72111    2.22967   35.46304
     276      444        1     0.73467   15.76479    2.63981   22.01533
     277      444        1     0.73467    4.80898    5.67259   20.44758
     278      444        1     0.73467    7.85122    5.26264   33.89567
     279      444        1     0.73467    3.10294   10.13203   29.76608
     280      444        1     0.73467    0.06030   10.54209   24.57698
     281      444        1     0.73467    4.80831    2.22974   29.76608
     282      444        1     0.73467    7.85154    2.63969   24.57717
     283      444        1     0.73467    3.10367   13.57496   20.44758
     284      444        1     0.73467    0.05999   13.16482   33.89511
     285      444        1     0.73467   11.01579   10.13203   35.46304
     286      444        1     0.73467    7.97355   10.54200   22.01496
     287      444        1     0.73467   12.72178    5.67265   26.14454
     288      444        1     0.73467   15.76445    5.26254   31.33364
     289      444        2     0.07791   13.96296   15.05711   26.43938
     290      444        2     0.07791    0.41340   13.64499   25.72148
     291      444        2     0.07791   10.57707   10.31388   26.52623
     292      444        2     0.07791   11.66881   15.09091   23.35850
     293      444        2     0.07791   12.37999   14.55516   28.92686
     294      444        2     0.07791    8.57783   12.91611   28.13255
     295      444        2     0.07791   10.95411   14.35274   31.30364
     296      444        2     0.07791    9.07142   13.04191   23.69005
     297      444        2     0.07791    9.15169    8.92284   24.59096
     298      444        2     0.07791   10.08885    1.42469   22.53716
     299      444        2     0.07791    8.83475    0.15516   26.35458
     300      444        2     0.07791   12.84350   11.24096   25.04123
     301      444        2     0.07791    9.77475    0.74685   35.75583
     302      444        2     0.07791    7.49838    2.15904   35.03812
     303      444        2     0.07791   13.16193    5.49028   35.84566
     304      444        2     0.07791   12.06885    0.71393   32.67681
     305      444        2     0.07791   11.35853    1.24871   19.60817
     306      444        2     0.07791   15.15982    2.88993   18.81461
     307      444        2     0.07791   12.78416    1.45133   21.98514
     308      444        2     0.07791   14.66560    2.76271   33.00780
     309      444        2     0.07791   14.58758    6.88150   33.91077
     310      444        2     0.07791   13.64896   14.38032   31.85529
     311      444        2     0.07791   14.90213   15.64882   35.67345
     312      444        2     0.07791   10.89388    4.56447   34.36141
     313      444        2     0.07791    1.86247    7.15484   20.15293
     314      444        2     0.07791   15.41203    5.74283   20.86971
     315      444        2     0.07791    5.24550    2.41102   20.06739
     316      444        2     0.07791    4.15663    7.18898   23.23363
     317      444        2     0.07791    3.44572    6.65654   36.30283
     318      444        2     0.07791    7.24561    5.01180   37.09620
     319      444        2     0.07791    4.87159    6.45416   33.92605
     320      444        2     0.07791    6.75557    5.13958   22.90096
     321      444        2     0.07791    6.67064    1.01990   22.00266
     322      444        2     0.07791    5.73553    9.32754   24.05478
     323      444        2     0.07791    6.99031    8.05720   20.23792
     324      444        2     0.07791    2.98178    3.33903   21.55201
     325      444        2     0.07791    6.04911    8.64921   29.47367
     326      444        2     0.07791    8.32553   10.06126   30.19157
     327      444        2     0.07791    2.66265   13.39286   29.38347
     328      444        2     0.07791    3.75510    8.61594   32.55232
     329      444        2     0.07791    4.46505    9.14684   26.98451
     330      444        2     0.07791    0.66619   10.79407   27.77733
     331      444        2     0.07791    3.03948    9.34964   24.60774
     332      444        2     0.07791    1.15781   10.66514   32.22058
     333      444        2     0.07791    1.23728   14.78411   31.31855
     334      444        2     0.07791    2.17603    6.47754   33.37365
     335      444        2     0.07791    0.92205    7.74701   29.55455
     336      444        2     0.07791    4.93024   12.46665   30.86865
     337      444        2     0.07791    1.86170    0.74751   29.47125
     338      444        2     0.07791   15.41129    2.15964   30.18821
     339      444        2     0.07791    5.24707    5.49085   29.37191
     340      444        2     0.07791    4.15609    0.71386   32.55232
     341      444        2     0.07791    3.44466    1.24970   26.98377
     342      444        2     0.07791    7.24694    2.88843   27.77826
     343      444        2     0.07791    4.87056    1.45208   24.60699
     344      444        2     0.07791    6.75340    2.76273   32.22058
     345      444        2     0.07791    6.67252    6.88189   31.32004
     346      444        2     0.07791    5.73607   14.38010   33.37365
     347      444        2     0.07791    6.98984   15.64932   29.55605
     348      444        2     0.07791    2.98121    4.56357   30.86958
     349      444        2     0.07791    6.05004   15.05766   20.15442
     350      444        2     0.07791    8.32639   13.64548   20.87214
     351      444        2     0.07791    2.66246   10.31447   20.06497
     352      444        2     0.07791    3.75583   15.09071   23.23288
     353      444        2     0.07791    4.46629   14.55579   36.30245
     354      444        2     0.07791    0.66485   12.91488   37.09620
     355      444        2     0.07791    3.04063   14.35322   33.92549
     356      444        2     0.07791    1.15932   13.04195   22.90301
     357      444        2     0.07791    1.23677    8.92325   21.99967
     358      444        2     0.07791    2.17568    1.42428   24.05533
     359      444        2     0.07791    0.92267    0.15590   20.23717
     360      444        2     0.07791    4.93086   11.24034   21.54959
     361      444        2     0.07791   13.96227    8.64992   35.75788
     362      444        2     0.07791    0.41273   10.06194   35.03980
     363      444        2     0.07791   10.57895   13.39355   35.84342
     364      444        2     0.07791   11.66794    8.61581   32.67700
     365      444        2     0.07791   12.37899    9.14803   19.60799
     366      444        2     0.07791    8.57912   10.79281   18.81442
     367      444        2     0.07791   10.95312    9.35046   21.98476
     368      444        2     0.07791    9.06917   10.66502   33.00613
     369      444        2     0.07791    9.15381   14.78468   33.90816
     370      444        2     0.07791   10.08898    6.47728   31.85566
     371      444        2     0.07791    8.83441    7.74747   35.67271
     372      444        2     0.07791   12.84293   12.46558   34.35843
     373      444        2     0.07791    9.77549    7.15540   26.43658
     374      444        2     0.07791    7.49910    5.74332   25.71943
     375      444        2     0.07791   13.16181    2.41181   26.52697
     376      444        2     0.07791   12.06948    7.18884   23.35850
     377      444        2     0.07791   11.35956    6.65749   28.92611
     378      444        2     0.07791   15.15863    5.01077   28.13330
     379      444        2     0.07791   12.78514    6.45468   31.30308
     380      444        2     0.07791   14.66675    5.13953   23.69005
     381      444        2     0.07791   14.58727    1.02053   24.59208
     382      444        2     0.07791   13.64862    9.32718   22.53698
     383      444        2     0.07791   14.90275    8.05758   26.35440
     384      444        2     0.07791   10.89450    3.33816   25.04198
     385      444        3    -0.03270   14.06530   14.05256   26.04334
     386      444        3    -0.03270   15.19532   13.35276   25.68365
     387      444        3    -0.03270   10.05199   10.67598   25.64861
     388      444        3    -0.03270   10.84409   15.58823   23.85778
     389      444        3    -0.03270   11.37195   14.20011   29.11174
     390      444        3     0.23511    9.41262   13.35426   28.67060