Created on Tue Feb 06 15:05:37 2018 

        1664 atoms
        1984 bonds
        3584 angles
        4352 dihedrals
        2688 impropers

           5 atom types
           7 bond types
          12 angle types
           3 dihedral types
           1 improper types
           0.000000  27.138000 xlo xhi
           0.000000  27.141999 ylo yhi
           0.000000  46.373986 zlo zhi
          -0.006632   0.027519  -0.023465 xy xz yz

Masses

    1    65.380000000 # Zn4+2
    2     1.007940000 # H_
    3    12.010700000 # C_R
    4    14.006700000 # N_R
    5    15.999400000 # O_2

Bond Coeffs

    1      101.478011        2.216443  # Zn4+2 N_R
    2      104.409475        2.122938  # Zn4+2 O_2
    3      357.440381        1.081418  # H_ C_R
    4      714.557442        1.269010  # C_R O_2
    5      391.669513        1.458000  # C_R C_R
    6      462.655054        1.379256  # C_R C_R
    7      663.718927        1.345073  # C_R N_R

Angle Coeffs

    1       42.809957               1               4 # N_R Zn4+2 O_2
    2       43.207730               1               4 # O_2 Zn4+2 O_2
    3      148.862838              -1               3 # O_2 C_R C_R
    4      256.805977              -1               3 # O_2 C_R O_2
    5      101.626578              -1               3 # C_R C_R C_R
    6      117.010657              -1               3 # C_R C_R C_R
    7       76.817955              -1               3 # H_ C_R C_R
    8      109.704024              -1               3 # N_R C_R H_
    9      165.695700              -1               3 # N_R C_R C_R
   10      132.654363              -1               3 # C_R N_R C_R
   11       21.958282              -1               3 # Zn4+2 N_R C_R
   12       28.000941              -1               3 # C_R O_2 Zn4+2

Dihedral Coeffs

    1        2.245703              -1               2 # O_2 C_R O_2 Zn4+2
    2        0.555556              -1               2 # O_2 C_R C_R C_R
    3        1.497136              -1               2 # C_R C_R C_R C_R

Improper Coeffs

    1        2.000000        1.000000       -1.000000        0.000000               0 # O_2 C_R C_R O_2

Pair Coeffs

    1        0.124000        2.461553 # Zn4+2 Zn4+2
    2        0.044000        2.571134 # H_ H_
    3        0.105000        3.430851 # C_R C_R
    4        0.069000        3.260689 # N_R N_R
    5        0.060000        3.118146 # O_2 O_2

Atoms

       1      444        1     0.93674    1.87964    2.69568   21.85931
       2      444        1     0.93674   11.70447   10.85779   10.26581
       3      444        1     0.93674    4.07825    8.65150    4.46860
       4      444        1     0.93674    9.50130    4.90954   16.06302
       5      444        1     0.93674    4.91863    9.49037    7.12420
       6      444        1     0.93674    8.66276    4.06918   18.71863
       7      444        1     0.93674    2.70674    1.86706    1.32815
       8      444        1     0.93674   10.86580   11.69636   12.92142
       9      444        2     0.09963    0.08486    4.58972   16.54183
      10      444        2     0.09963    3.12887    3.22609   19.30317
      11      444        2     0.09963   12.76961    3.40917   20.57707
      12      444        2     0.09963    4.45068    4.36221   18.14684
      13      444        2     0.09963    5.67131    4.38419   14.05317
      14      444        2     0.09963    3.28785    4.07365   13.33438
      15      444        2     0.09963    1.50496    3.84286   15.02378
      16      444        2     0.09963   13.49587    8.96995    4.94625
      17      444        2     0.09963   10.45227   10.33044    7.71176
      18      444        2     0.09963    0.81164   10.14538    8.98287
      19      444        2     0.09963    9.13012    9.19632    6.55195
      20      444        2     0.09963    7.90910    9.17906    2.45828
      21      444        2     0.09963   10.29254    9.49039    1.73972
      22      444        2     0.09963   12.07558    9.71913    3.42936
      23      444        2     0.09963    2.19419    6.84823   22.33928
      24      444        2     0.09963    3.54351    9.90387    1.91594
      25      444        2     0.09963    3.36541    5.97419    3.18566
      26      444        2     0.09963    2.40786   11.22600    0.75729
      27      444        2     0.09963    2.40155   12.43475   19.85085
      28      444        2     0.09963    2.71103   10.05103   19.13228
      29      444        2     0.09963    2.94044    8.26822   20.63642
      30      444        2     0.09963   11.38997    6.70442   10.74253
      31      444        2     0.09963   10.03381    3.65926   13.51013
      32      444        2     0.09963   10.21285    7.58859   14.78055
      33      444        2     0.09963   11.16625    2.33802   12.35032
      34      444        2     0.09963   11.18071    1.11683    8.25666
      35      444        2     0.09963   10.87087    3.50046    7.53809
      36      444        2     0.09963   10.64380    5.28371    9.22773
      37      444        2     0.09963    6.71293   11.37768   12.44376
      38      444        2     0.09963    3.66840   10.01944    9.67825
      39      444        2     0.09963    7.59708   10.20315    8.40668
      40      444        2     0.09963    2.34691   11.15299   10.83806
      41      444        2     0.09963    1.12582   11.16941   14.93173
      42      444        2     0.09963    3.50923   10.85829   15.65029
      43      444        2     0.09963    5.29234   10.62982   13.95857
      44      444        2     0.09963    6.85815    2.18617    0.84911
      45      444        2     0.09963    9.91506    3.53881   21.27244
      46      444        2     0.09963    5.98602    3.35579   20.00180
      47      444        2     0.09963   11.23740    2.40231   22.43110
      48      444        2     0.09963   12.44424    2.39289    3.33777
      49      444        2     0.09963   10.06074    2.70381    4.05633
      50      444        2     0.09963    8.27794    2.93444    2.36670
      51      444        2     0.09963    4.60513    0.07307    6.64307
      52      444        2     0.09963    3.24064    3.11690    3.88150
      53      444        2     0.09963    3.41794   12.75885    2.61039
      54      444        2     0.09963    4.37540    4.43917    5.03946
      55      444        2     0.09963    4.39553    5.65971    9.13336
      56      444        2     0.09963    4.08775    3.27584    9.85192
      57      444        2     0.09963    3.85900    1.49276    8.16252
      58      444        2     0.09963    8.97457   13.48793   18.23889
      59      444        2     0.09963   10.33482   10.44421   15.47477
      60      444        2     0.09963   10.15552    0.80230   14.20435
      61      444        2     0.09963    9.20246    9.12192   16.63458
      62      444        2     0.09963    9.18779    7.90079   20.72824
      63      444        2     0.09963    9.49637   10.28460   21.44658
      64      444        2     0.09963    9.72286   12.06792   19.75717
      65      444        3     0.70063   11.57690    4.23460   18.20596
      66      444        3    -0.08992   13.04077    4.01044   18.50368
      67      444        3    -0.05942    0.42645    4.21349   17.50525
      68      444        3    -0.08992    1.77958    3.93995   17.74941
      69      444        3     0.16296    2.10729    3.48593   19.03443
      70      444        3     0.16296   13.46759    3.57314   19.75903
      71      444        3    -0.08992    2.83154    4.09047   16.72107
      72      444        3    -0.05942    4.16926    4.27573   17.09809
      73      444        3    -0.08992    5.18726    4.36644   16.14789
      74      444        3    -0.05942    4.86857    4.30651   14.78495
      75      444        3    -0.05942    3.54069    4.13488   14.39333
      76      444        3    -0.05942    2.53081    4.01753   15.34863
      77      444        3     0.70063    6.61474    4.48528   16.60189
      78      444        3     0.70063    2.00385    9.32351    6.61154
      79      444        3    -0.08992    0.54005    9.54667    6.90903
      80      444        3    -0.05942   13.15436    9.34493    5.91036
      81      444        3    -0.08992   11.80130    9.61859    6.15476
      82      444        3     0.16296   11.47374   10.07068    7.44047
      83      444        3     0.16296    0.11349    9.98233    8.16484
      84      444        3    -0.08992   10.74919    9.46933    5.12641
      85      444        3    -0.05942    9.41144    9.28405    5.50459
      86      444        3    -0.08992    8.39329    9.19482    4.55323
      87      444        3    -0.05942    8.71189    9.25595    3.19007
      88      444        3    -0.05942   10.03979    9.42782    2.79867
      89      444        3    -0.05942   11.04977    9.54415    3.75397
      90      444        3     0.70063    6.96588    9.07539    5.00746
      91      444        3     0.70063    2.53907    4.78217    0.81525
      92      444        3    -0.08992    2.76186    6.24606    1.11321
      93      444        3    -0.05942    2.55710    7.20145    0.11547
      94      444        3    -0.08992    2.82989    8.55468    0.35986
      95      444        3     0.16296    3.28448    8.88219    1.64465
      96      444        3     0.16296    3.19990    6.67253    2.36832
      97      444        3    -0.08992    2.69306    9.59492   22.51898
      98      444        3    -0.05942    2.50808   10.93271   22.89716
      99      444        3    -0.08992    2.41820   11.95069   21.94556
     100      444        3    -0.05942    2.47838   11.63193   20.58077
     101      444        3    -0.05942    2.64964   10.30395   20.19123
     102      444        3    -0.05942    2.76598    9.29401   21.14654
     103      444        3     0.70063    2.30081   13.37836   22.39956
     104      444        3     0.70063   11.03354    8.78165   12.40875
     105      444        3    -0.08992   10.81231    7.31755   12.70694
     106      444        3    -0.05942   11.01554    6.36254   11.70850
     107      444        3    -0.08992   10.74395    5.00913   11.95313
     108      444        3     0.16296   10.29209    4.68108   13.23885
     109      444        3     0.16296   10.37710    6.89056   13.96274
     110      444        3    -0.08992   10.89324    3.95715   10.92455
     111      444        3    -0.05942   11.07841    2.61940   11.30296
     112      444        3    -0.08992   11.16669    1.60126   10.35137
     113      444        3    -0.05942   11.10493    1.91978    8.98844
     114      444        3    -0.05942   10.93358    3.24772    8.59704
     115      444        3    -0.05942   10.81855    4.25784    9.55235
     116      444        3     0.70063   11.28450    0.17371   10.80537
     117      444        3     0.70063    8.79012   11.02412   10.77847
     118      444        3    -0.08992    7.32618   10.80092   10.48098
     119      444        3    -0.05942    6.37117   11.00284   11.47965
     120      444        3    -0.08992    5.01783   10.73090   11.23410
     121      444        3     0.16296    4.69008   10.27843    9.94954
     122      444        3     0.16296    6.89918   10.36599    9.22495
     123      444        3    -0.08992    3.96587   10.87931   12.26383
     124      444        3    -0.05942    2.62825   11.06536   11.88542
     125      444        3    -0.08992    1.61010   11.15448   12.83678
     126      444        3    -0.05942    1.92866   11.09294   14.19995
     127      444        3    -0.05942    3.25648   10.92070   14.59134
     128      444        3    -0.05942    4.26656   10.80508   13.63395
     129      444        3     0.70063    0.18266   11.27303   12.38278
     130      444        3     0.70063    4.79432    2.52963   22.37220
     131      444        3    -0.08992    6.25792    2.75410   22.07471
     132      444        3    -0.05942    7.21324    2.55095   23.07291
     133      444        3    -0.08992    8.56630    2.82465   22.82875
     134      444        3     0.16296    8.89358    3.27891   21.54350
     135      444        3     0.16296    6.68434    3.19171   20.81937
     136      444        3    -0.08992    9.60463    2.68649    0.66964
     137      444        3    -0.05942   10.94227    2.50063    0.29146
     138      444        3    -0.08992   11.96030    2.41006    1.24282
     139      444        3    -0.05942   11.64152    2.47029    2.60599
     140      444        3    -0.05942   10.31365    2.64259    2.99738
     141      444        3    -0.05942    9.30372    2.75929    2.04208
     142      444        3     0.70063   13.38782    2.29169    0.78859
     143      444        3     0.70063    4.24435   11.56631    4.98103
     144      444        3    -0.08992    4.02078   13.03030    4.68331
     145      444        3    -0.05942    4.22815    0.41454    5.68128
     146      444        3    -0.08992    3.95513    1.76775    5.43689
     147      444        3     0.16296    3.50020    2.09524    4.15209
     148      444        3     0.16296    3.58266   13.45694    3.42820
     149      444        3    -0.08992    4.10533    2.81970    6.46453
     150      444        3    -0.05942    4.28926    4.15761    6.08705
     151      444        3    -0.08992    4.37840    5.17569    7.03841
     152      444        3    -0.05942    4.31902    4.85685    8.40158
     153      444        3    -0.05942    4.14892    3.52877    8.79251
     154      444        3    -0.05942    4.03267    2.51879    7.83720
     155      444        3     0.70063    4.49598    6.60334    6.58464
     156      444        3     0.70063    9.33366    1.99439   16.57545
     157      444        3    -0.08992    9.55586    0.53053   16.27773
     158      444        3    -0.05942    9.34980   13.14643   17.27616
     159      444        3    -0.08992    9.62276   11.79328   17.03085
     160      444        3     0.16296   10.07546   11.46576   15.74606
     161      444        3     0.16296    9.99178    0.10399   15.02193
     162      444        3    -0.08992    9.47431   10.74118   18.06012
     163      444        3    -0.05942    9.28992    9.40330   17.68194
     164      444        3    -0.08992    9.20208    8.38508   18.63330
     165      444        3    -0.05942    9.26328    8.70374   19.99646
     166      444        3    -0.05942    9.43399   10.03180   20.38786
     167      444        3    -0.05942    9.54861   11.04198   19.43256
     168      444        3     0.70063    9.08521    6.95745   18.17930
     169      444        4    -0.30885    1.19961    3.32865   20.01617
     170      444        4    -0.30885   12.38161   10.22658    8.42221
     171      444        4    -0.30885    3.44338    7.97404    2.62570
     172      444        4    -0.30885   10.13477    5.58883   14.22035
     173      444        4    -0.30885    5.59760   10.12282    8.96734
     174      444        4    -0.30885    7.98563    3.43626   20.54368
     175      444        4    -0.30885    3.34208    1.18739    3.17082
     176      444        4    -0.30885   10.23205   12.37365   14.76455
     177      444        5    -0.59894   10.74164    3.82774   19.07316
     178      444        5    -0.59894   11.31537    4.78996   17.09438
     179      444        5    -0.59894    6.82730    4.40619   17.85630
     180      444        5    -0.59894    7.49850    4.63217   15.69991
     181      444        5    -0.59894    2.83915    9.72996    7.47873
     182      444        5    -0.59894    2.26505    8.76864    5.49949
     183      444        5    -0.59894    6.75383    9.15408    6.26234
     184      444        5    -0.59894    6.08178    8.92942    4.10572
     185      444        5    -0.59894    2.94681    3.94682    1.68198
     186      444        5    -0.59894    1.99768    4.50928   22.89090
     187      444        5    -0.59894    2.37011    0.03122    0.46722
     188      444        5    -0.59894    2.15738    0.69124   21.49782
     189      444        5    -0.59894   10.62650    9.61653   13.27455
     190      444        5    -0.59894   11.58702    9.04358   11.29624
     191      444        5    -0.59894   11.20225   13.53226   12.06025
     192      444        5    -0.59894   11.42695   12.86093    9.90340
     193      444        5    -0.59894    9.62515   10.61744    9.91105
     194      444        5    -0.59894    9.05194   11.57762   11.89099
     195      444        5    -0.59894   13.53961   11.19473   11.12790
     196      444        5    -0.59894   12.86826   11.41933   13.28476
     197      444        5    -0.59894    3.95875    2.93656   21.50524
     198      444        5    -0.59894    4.51982    1.98595    0.29656
     199      444        5    -0.59894    0.04398    2.35881   22.72093
     200      444        5    -0.59894    0.70244    2.14443    1.69010
     201      444        5    -0.59894    3.83686   10.73103    4.11337
     202      444        5    -0.59894    4.79931   11.30471    6.09285
     203      444        5    -0.59894    4.41594    6.81607    5.32837
     204      444        5    -0.59894    4.64185    7.48712    7.48685
     205      444        5    -0.59894    9.74078    2.82961   15.70849
     206      444        5    -0.59894    8.77952    2.25566   17.68773
     207      444        5    -0.59894    9.16435    6.74540   16.92419
     208      444        5    -0.59894    8.93983    6.07326   19.08058
     209      444        1     0.93674    1.89339    2.68394   45.04630
     210      444        1     0.93674   11.71823   10.84606   33.45280
     211      444        1     0.93674    4.09201    8.63977   27.65559
     212      444        1     0.93674    9.51506    4.89781   39.25001
     213      444        1     0.93674    4.93239    9.47864   30.31120
     214      444        1     0.93674    8.67652    4.05745   41.90562
     215      444        1     0.93674    2.72050    1.85533   24.51514
     216      444        1     0.93674   10.87956   11.68463   36.10841
     217      444        2     0.09963    0.09861    4.57798   39.72883
     218      444        2     0.09963    3.14263    3.21436   42.49016
     219      444        2     0.09963   12.78337    3.39744   43.76406
     220      444        2     0.09963    4.46444    4.35048   41.33383
     221      444        2     0.09963    5.68507    4.37246   37.24017
     222      444        2     0.09963    3.30161    4.06191   36.52137
     223      444        2     0.09963    1.51872    3.83112   38.21077
     224      444        2     0.09963   13.50963    8.95822   28.13324
     225      444        2     0.09963   10.46603   10.31871   30.89875
     226      444        2     0.09963    0.82540   10.13365   32.16987
     227      444        2     0.09963    9.14388    9.18458   29.73894
     228      444        2     0.09963    7.92286    9.16733   25.64528
     229      444        2     0.09963   10.30630    9.47866   24.92671
     230      444        2     0.09963   12.08934    9.70740   26.61635
     231      444        2     0.09963    2.20795    6.83649   45.52627
     232      444        2     0.09963    3.55727    9.89213   25.10293
     233      444        2     0.09963    3.37917    5.96246   26.37265
     234      444        2     0.09963    2.42162   11.21426   23.94428
     235      444        2     0.09963    2.41531   12.42302   43.03784
     236      444        2     0.09963    2.72479   10.03930   42.31928
     237      444        2     0.09963    2.95419    8.25649   43.82342
     238      444        2     0.09963   11.40373    6.69269   33.92953
     239      444        2     0.09963   10.04757    3.64753   36.69713
     240      444        2     0.09963   10.22661    7.57686   37.96754
     241      444        2     0.09963   11.18001    2.32629   35.53731
     242      444        2     0.09963   11.19446    1.10509   31.44365
     243      444        2     0.09963   10.88463    3.48873   30.72508
     244      444        2     0.09963   10.65756    5.27197   32.41472
     245      444        2     0.09963    6.72669   11.36595   35.63076
     246      444        2     0.09963    3.68216   10.00771   32.86524
     247      444        2     0.09963    7.61084   10.19141   31.59367
     248      444        2     0.09963    2.36067   11.14125   34.02506
     249      444        2     0.09963    1.13958   11.15768   38.11872
     250      444        2     0.09963    3.52298   10.84655   38.83729
     251      444        2     0.09963    5.30610   10.61809   37.14556
     252      444        2     0.09963    6.87191    2.17444   24.03610
     253      444        2     0.09963    9.92882    3.52708   44.45944
     254      444        2     0.09963    5.99978    3.34405   43.18879
     255      444        2     0.09963   11.25116    2.39057   45.61809
     256      444        2     0.09963   12.45800    2.38115   26.52476
     257      444        2     0.09963   10.07450    2.69208   27.24333
     258      444        2     0.09963    8.29170    2.92271   25.55369
     259      444        2     0.09963    4.61889    0.06134   29.83007
     260      444        2     0.09963    3.25440    3.10516   27.06850
     261      444        2     0.09963    3.43170   12.74712   25.79738
     262      444        2     0.09963    4.38916    4.42744   28.22645
     263      444        2     0.09963    4.40929    5.64798   32.32035
     264      444        2     0.09963    4.10151    3.26411   33.03891
     265      444        2     0.09963    3.87276    1.48103   31.34951
     266      444        2     0.09963    8.98833   13.47620   41.42588
     267      444        2     0.09963   10.34858   10.43248   38.66176
     268      444        2     0.09963   10.16928    0.79056   37.39134
     269      444        2     0.09963    9.21622    9.11019   39.82157
     270      444        2     0.09963    9.20155    7.88906   43.91524
     271      444        2     0.09963    9.51013   10.27286   44.63357
     272      444        2     0.09963    9.73662   12.05619   42.94417
     273      444        3     0.70063   11.59066    4.22287   41.39296
     274      444        3    -0.08992   13.05453    3.99870   41.69068
     275      444        3    -0.05942    0.44021    4.20175   40.69225
     276      444        3    -0.08992    1.79334    3.92822   40.93640
     277      444        3     0.16296    2.12105    3.47420   42.22143
     278      444        3     0.16296   13.48135    3.56141   42.94602
     279      444        3    -0.08992    2.84530    4.07874   39.90806
     280      444        3    -0.05942    4.18302    4.26399   40.28508
     281      444        3    -0.08992    5.20102    4.35471   39.33488
     282      444        3    -0.05942    4.88233    4.29478   37.97195
     283      444        3    -0.05942    3.55445    4.12315   37.58032
     284      444        3    -0.05942    2.54456    4.00580   38.53562
     285      444        3     0.70063    6.62850    4.47355   39.78888
     286      444        3     0.70063    2.01760    9.31178   29.79853
     287      444        3    -0.08992    0.55381    9.53494   30.09602
     288      444        3    -0.05942   13.16812    9.33320   29.09736
     289      444        3    -0.08992   11.81506    9.60686   29.34175
     290      444        3     0.16296   11.48750   10.05895   30.62747
     291      444        3     0.16296    0.12725    9.97060   31.35183
     292      444        3    -0.08992   10.76295    9.45759   28.31341
     293      444        3    -0.05942    9.42520    9.27232   28.69159
     294      444        3    -0.08992    8.40705    9.18308   27.74022
     295      444        3    -0.05942    8.72565    9.24422   26.37706
     296      444        3    -0.05942   10.05355    9.41609   25.98566
     297      444        3    -0.05942   11.06353    9.53241   26.94097
     298      444        3     0.70063    6.97964    9.06366   28.19446
     299      444        3     0.70063    2.55283    4.77044   24.00225
     300      444        3    -0.08992    2.77562    6.23433   24.30020
     301      444        3    -0.05942    2.57086    7.18971   23.30246
     302      444        3    -0.08992    2.84365    8.54294   23.54686
     303      444        3     0.16296    3.29824    8.87046   24.83165
     304      444        3     0.16296    3.21366    6.66080   25.55531
     305      444        3    -0.08992    2.70682    9.58319   45.70597
     306      444        3    -0.05942    2.52184   10.92097   46.08415
     307      444        3    -0.08992    2.43196   11.93895   45.13255
     308      444        3    -0.05942    2.49214   11.62020   43.76777
     309      444        3    -0.05942    2.66340   10.29221   43.37823
     310      444        3    -0.05942    2.77974    9.28228   44.33353
     311      444        3     0.70063    2.31457   13.36662   45.58656
     312      444        3     0.70063   11.04730    8.76992   35.59574
     313      444        3    -0.08992   10.82607    7.30582   35.89393
     314      444        3    -0.05942   11.02930    6.35081   34.89550
     315      444        3    -0.08992   10.75771    4.99740   35.14012
     316      444        3     0.16296   10.30585    4.66934   36.42584
     317      444        3     0.16296   10.39086    6.87883   37.14974
     318      444        3    -0.08992   10.90700    3.94542   34.11154
     319      444        3    -0.05942   11.09217    2.60767   34.48996
     320      444        3    -0.08992   11.18045    1.58952   33.53836
     321      444        3    -0.05942   11.11869    1.90805   32.17543
     322      444        3    -0.05942   10.94734    3.23599   31.78403
     323      444        3    -0.05942   10.83231    4.24611   32.73934
     324      444        3     0.70063   11.29826    0.16198   33.99236
     325      444        3     0.70063    8.80388   11.01239   33.96547
     326      444        3    -0.08992    7.33994   10.78918   33.66798
     327      444        3    -0.05942    6.38493   10.99110   34.66664
     328      444        3    -0.08992    5.03159   10.71917   34.42109
     329      444        3     0.16296    4.70384   10.26670   33.13653
     330      444        3     0.16296    6.91294   10.35426   32.41194
     331      444        3    -0.08992    3.97963   10.86758   35.45083
     332      444        3    -0.05942    2.64201   11.05362   35.07241
     333      444        3    -0.08992    1.62386   11.14275   36.02378
     334      444        3    -0.05942    1.94242   11.08121   37.38694
     335      444        3    -0.05942    3.27024   10.90897   37.77834
     336      444        3    -0.05942    4.28032   10.79334   36.82094
     337      444        3     0.70063    0.19642   11.26129   35.56977
     338      444        3     0.70063    4.80808    2.51790   45.55919
     339      444        3    -0.08992    6.27168    2.74237   45.26171
     340      444        3    -0.05942    7.22700    2.53922   46.25991
     341      444        3    -0.08992    8.58006    2.81292   46.01575
     342      444        3     0.16296    8.90734    3.26718   44.73049
     343      444        3     0.16296    6.69810    3.17997   44.00636
     344      444        3    -0.08992    9.61838    2.67476   23.85663
     345      444        3    -0.05942   10.95603    2.48890   23.47845
     346      444        3    -0.08992   11.97406    2.39832   24.42982
     347      444        3    -0.05942   11.65528    2.45855   25.79298
     348      444        3    -0.05942   10.32741    2.63086   26.18438
     349      444        3    -0.05942    9.31747    2.74756   25.22907
     350      444        3     0.70063   13.40158    2.27996   23.97558
     351      444        3     0.70063    4.25811   11.55458   28.16802
     352      444        3    -0.08992    4.03454   13.01856   27.87030
     353      444        3    -0.05942    4.24191    0.40281   28.86827
     354      444        3    -0.08992    3.96889    1.75602   28.62388
     355      444        3     0.16296    3.51396    2.08351   27.33909
     356      444        3     0.16296    3.59642   13.44521   26.61519
     357      444        3    -0.08992    4.11909    2.80797   29.65153
     358      444        3    -0.05942    4.30302    4.14588   29.27404
     359      444        3    -0.08992    4.39216    5.16396   30.22540
     360      444        3    -0.05942    4.33278    4.84512   31.58857
     361      444        3    -0.05942    4.16268    3.51704   31.97950
     362      444        3    -0.05942    4.04643    2.50706   31.02420
     363      444        3     0.70063    4.50974    6.59161   29.77164
     364      444        3     0.70063    9.34742    1.98266   39.76245
     365      444        3    -0.08992    9.56962    0.51880   39.46473
     366      444        3    -0.05942    9.36356   13.13470   40.46316
     367      444        3    -0.08992    9.63652   11.78155   40.21784
     368      444        3     0.16296   10.08922   11.45402   38.93305
     369      444        3     0.16296   10.00554    0.09226   38.20892
     370      444        3    -0.08992    9.48807   10.72945   41.24711
     371      444        3    -0.05942    9.30368    9.39157   40.86893
     372      444        3    -0.08992    9.21584    8.37334   41.82029
     373      444        3    -0.05942    9.27704    8.69201   43.18346
     374      444        3    -0.05942    9.44775   10.02007   43.57485
     375      444        3    -0.05942    9.56237   11.03025   42.61955
     376      444        3     0.70063    9.09897    6.94571   41.36629
     377      444        4    -0.30885    1.21337    3.31692   43.20316
     378      444        4    -0.30885   12.39536   10.21484   31.60920
     379      444        4    -0.30885    3.45714    7.96230   25.81269
     380      444        4    -0.30885   10.14853    5.57710   37.40734
     381      444        4    -0.30885    5.61136   10.11109   32.15433
     382      444        4    -0.30885    7.99939    3.42453   43.73067
     383      444        4    -0.30885    3.35583    1.17566   26.35781