Created on Tue Feb 06 14:30:49 2018 

        1056 atoms
        1224 bonds
        2112 angles
        2808 dihedrals
        1728 impropers

           6 atom types
           9 bond types
          16 angle types
           4 dihedral types
           1 improper types
           0.000000  33.276001 xlo xhi
           0.000000  32.366000 ylo yhi
           0.000000  35.965232 zlo zhi
          -0.000000  -0.794185  -0.002512 xy xz yz

Masses

    1    65.380000000 # Zn4+2
    2     1.007940000 # H_
    3    12.010700000 # C_R
    4    79.904000000 # Br
    5    14.006700000 # N_R
    6    15.999400000 # O_2

Bond Coeffs

    1      104.409475        2.122938  # Zn4+2 O_2
    2      101.478011        2.216443  # Zn4+2 N_R
    3      357.440381        1.081418  # H_ C_R
    4      462.655054        1.379256  # C_R C_R
    5      391.669513        1.458000  # C_R C_R
    6      714.557442        1.269010  # C_R O_2
    7      663.718927        1.345073  # C_R N_R
    8      231.033365        1.905838  # C_R Br
    9      929.109299        1.322497  # N_R N_R

Angle Coeffs

    1       42.809957               1               4 # N_R Zn4+2 O_2
    2       43.207730               1               4 # O_2 Zn4+2 O_2
    3      101.626578              -1               3 # C_R C_R C_R
    4      117.010657              -1               3 # C_R C_R C_R
    5      256.805977              -1               3 # O_2 C_R O_2
    6      148.862838              -1               3 # O_2 C_R C_R
    7       76.817955              -1               3 # C_R C_R H_
    8      109.704024              -1               3 # N_R C_R H_
    9      165.695700              -1               3 # N_R C_R C_R
   10      234.844275              -1               3 # N_R C_R N_R
   11      143.630586              -1               3 # N_R C_R C_R
   12       63.886311              -1               3 # Br C_R C_R
   13       21.958282              -1               3 # Zn4+2 N_R C_R
   14      132.654363              -1               3 # C_R N_R C_R
   15      184.094783              -1               3 # C_R N_R N_R
   16       28.000941              -1               3 # Zn4+2 O_2 C_R

Dihedral Coeffs

    1        1.497136              -1               2 # C_R C_R C_R H_
    2        0.555556              -1               2 # C_R C_R C_R O_2
    3        2.245703              -1               2 # C_R C_R O_2 Zn4+2
    4        3.368555              -1               2 # C_R N_R N_R C_R

Improper Coeffs

    1        2.000000        1.000000       -1.000000        0.000000               0 # C_R C_R C_R C_R

Pair Coeffs

    1        0.124000        2.461553 # Zn4+2 Zn4+2
    2        0.044000        2.571134 # H_ H_
    3        0.105000        3.430851 # C_R C_R
    4        0.251000        3.731975 # Br Br
    5        0.069000        3.260689 # N_R N_R
    6        0.060000        3.118146 # O_2 O_2

Atoms

       1      444        1     0.86447   10.67039   16.18176   16.61673
       2      444        1     0.86373    0.02459   -0.00006    1.36585
       3      444        2     0.10371    7.91536   12.92115   15.84788
       4      444        2     0.10338    8.45158   12.84854    2.14671
       5      444        2     0.11170    7.14999   10.71298    2.16025
       6      444        2     0.10998    6.60603   10.79085   15.84454
       7      444        2     0.10402    2.77802   12.92246    2.13457
       8      444        2     0.10291    2.24509   12.84703   15.83564
       9      444        2     0.11087    3.54670   10.71149   15.82326
      10      444        2     0.11084    4.08786   10.79246    2.13907
      11      444        2     0.10402    2.77813    3.26079    2.13466
      12      444        2     0.10298    2.24498    3.33374   15.83574
      13      444        2     0.11091    3.54656    5.46930   15.82337
      14      444        2     0.11088    4.08795    5.39080    2.13918
      15      444        2     0.10369    7.91543    3.25957   15.84799
      16      444        2     0.10339    8.45148    3.33470    2.14684
      17      444        2     0.11167    7.14987    5.47025    2.16036
      18      444        2     0.10999    6.60609    5.38986   15.84464
      19      444        2     0.12127    1.69667   16.18194   14.53191
      20      444        2     0.12049    8.65700   16.18170   14.40422
      21      444        2     0.13698    1.86652   16.18195   12.01419
      22      444        2     0.13725    8.64234   16.18204   11.88120
      23      444        2     0.12119    8.99843   -0.00003    3.45072
      24      444        2     0.12060    2.03807   16.18273    3.57845
      25      444        2     0.13681    8.82863   -0.00030    5.96845
      26      444        2     0.13718    2.05263   16.18241    6.10147
      27      444        3    -0.10978    8.45495   13.01544    0.00565
      28      444        3     0.66941    8.90983   14.24794   17.97837
      29      444        3    -0.01296    6.25221    9.32231    0.00000
      30      444        3     0.09196    6.99419   10.61438    0.00000
      31      444        3    -0.04098    7.64242   12.43372   16.78258
      32      444        3    -0.04022    8.11860   12.39323    1.21519
      33      444        3    -0.16755    7.39505   11.20410    1.21785
      34      444        3    -0.16154    6.91601   11.24671   16.78542
      35      444        3    -0.10987    2.23996   13.01408   17.97672
      36      444        3     0.66929    1.78501   14.24890    0.00000
      37      444        3    -0.01482    4.44324    9.32114   17.97433
      38      444        3     0.09244    3.70137   10.61326   17.97220
      39      444        3    -0.04041    3.05186   12.43505    1.20012
      40      444        3    -0.04030    2.57740   12.39184   16.76748
      41      444        3    -0.16601    3.30084   11.20264   16.76543
      42      444        3    -0.16349    3.77830   11.24806    1.19791
      43      444        3    -0.10956    2.23994    3.16673   17.97681
      44      444        3     0.66912    1.78504    1.93429    0.00000
      45      444        3    -0.01452    4.44322    6.85967   17.97440
      46      444        3     0.09228    3.70134    5.56756   17.97231
      47      444        3    -0.04079    3.05190    3.74824    1.20023
      48      444        3    -0.04046    2.57730    3.78890   16.76758
      49      444        3    -0.16604    3.30075    4.97811   16.76553
      50      444        3    -0.16337    3.77835    4.93523    1.19802
      51      444        3    -0.10996    8.45495    3.16787    0.00575
      52      444        3     0.66951    8.90985    1.93286   17.97846
      53      444        3    -0.01328    6.25221    6.86088    0.00000
      54      444        3     0.09195    6.99419    5.56880    0.00000
      55      444        3    -0.04102    7.64247    3.74699   16.78269
      56      444        3    -0.04032    8.11855    3.79004    1.21530
      57      444        3    -0.16729    7.39498    4.97917    1.21798
      58      444        3    -0.16150    6.91603    4.93398   16.78553
      59      444        3     0.12685    0.81097   16.18161   13.89655
      60      444        3     0.12673    9.58046   -0.00090   13.82493
      61      444        3    -0.17001    0.89815   -0.00063   12.51002
      62      444        3     0.03906   10.80650   -0.00037   11.75657
      63      444        3    -0.17178    9.57845   16.18161   12.43550
      64      444        3     0.33721   10.85268   16.18180   10.28235
      65      444        3     0.12712    9.88416   16.18262    4.08606
      66      444        3     0.12677    1.11458   -0.00003    4.15771
      67      444        3    -0.16990    9.79700    0.00012    5.47260
      68      444        3     0.03867   -0.11151   -0.00013    6.22605
      69      444        3    -0.17178    1.11655   16.18205    5.54713
      70      444        3     0.33733   -0.15766   16.18160    7.70026
      71      444        3     0.02680    6.92583    8.09164    0.01791
      72      444        3     0.02777    3.76943    8.09036   17.96620
      73      444        4    -0.07754    8.85077    8.09158    0.00000
      74      444        4    -0.07706    1.84499    8.09042   17.95990
      75      444        5    -0.22402   10.72060   16.18164   14.54184
      76      444        5    -0.17533    0.97864   16.18163    9.69092
      77      444        5    -0.17527    9.67455   -0.00040    9.61516
      78      444        5    -0.22358   -0.02553   16.18257    3.44076
      79      444        5    -0.17511    9.71649   16.18223    8.29164
      80      444        5    -0.17510    1.02051   16.18224    8.36740
      81      444        6    -0.58751    9.22851   14.72264   16.83880
      82      444        6    -0.59072    9.67639   14.71438    1.12429
      83      444        6    -0.58876    1.46632   14.72394    1.14315
      84      444        6    -0.58939    1.01888   14.71305   16.85770
      85      444        6    -0.58875    1.46636    1.45927    1.14319
      86      444        6    -0.58924    1.01891    1.46770   16.85771
      87      444        6    -0.58745    9.22856    1.45814   16.83883
      88      444        6    -0.59083    9.67641    1.46885    1.12435
      89      444        1     0.86447   10.27329   16.18050   34.59934
      90      444        1     0.86373   -0.37250   -0.00132   19.34847
      91      444        2     0.10371    7.51827   12.91989   33.83050
      92      444        2     0.10338    8.05448   12.84728   20.12933
      93      444        2     0.11170    6.75289   10.71172   20.14287
      94      444        2     0.10998    6.20893   10.78959   33.82715
      95      444        2     0.10402    2.38093   12.92121   20.11719
      96      444        2     0.10291    1.84800   12.84577   33.81825
      97      444        2     0.11087    3.14961   10.71023   33.80588
      98      444        2     0.11084    3.69077   10.79120   20.12168
      99      444        2     0.10402    2.38104    3.25953   20.11728
     100      444        2     0.10298    1.84789    3.33249   33.81836
     101      444        2     0.11091    3.14947    5.46804   33.80599
     102      444        2     0.11088    3.69086    5.38954   20.12179
     103      444        2     0.10369    7.51833    3.25832   33.83061
     104      444        2     0.10339    8.05439    3.33344   20.12945
     105      444        2     0.11167    6.75278    5.46900   20.14298
     106      444        2     0.10999    6.20900    5.38860   33.82726
     107      444        2     0.12127    1.29958   16.18068   32.51453
     108      444        2     0.12049    8.25990   16.18045   32.38684
     109      444        2     0.13698    1.46943   16.18069   29.99680
     110      444        2     0.13725    8.24525   16.18078   29.86382
     111      444        2     0.12119    8.60134   -0.00129   21.43334
     112      444        2     0.12060    1.64097   16.18148   21.56107
     113      444        2     0.13681    8.43154   -0.00156   23.95106
     114      444        2     0.13718    1.65554   16.18116   24.08408
     115      444        3    -0.10978    8.05786   13.01418   17.98826
     116      444        3     0.66941    8.51274   14.24668   35.96099
     117      444        3    -0.01296    5.85511    9.32106   17.98262
     118      444        3     0.09196    6.59710   10.61313   17.98262
     119      444        3    -0.04098    7.24533   12.43246   34.76520
     120      444        3    -0.04022    7.72151   12.39197   19.19781
     121      444        3    -0.16755    6.99796   11.20285   19.20047
     122      444        3    -0.16154    6.51892   11.24545   34.76804
     123      444        3    -0.10987    1.84287   13.01283   35.95933
     124      444        3     0.66929    1.38792   14.24765   17.98262
     125      444        3    -0.01482    4.04615    9.31988   35.95694
     126      444        3     0.09244    3.30427   10.61200   35.95482
     127      444        3    -0.04041    2.65477   12.43379   19.18274
     128      444        3    -0.04030    2.18030   12.39058   34.75009
     129      444        3    -0.16601    2.90375   11.20139   34.74804
     130      444        3    -0.16349    3.38121   11.24680   19.18053
     131      444        3    -0.10956    1.84284    3.16547   35.95942
     132      444        3     0.66912    1.38794    1.93303   17.98262
     133      444        3    -0.01452    4.04612    6.85842   35.95701
     134      444        3     0.09228    3.30425    5.56630   35.95493
     135      444        3    -0.04079    2.65481    3.74698   19.18285
     136      444        3    -0.04046    2.18021    3.78765   34.75020
     137      444        3    -0.16604    2.90365    4.97686   34.74815
     138      444        3    -0.16337    3.38125    4.93397   19.18064
     139      444        3    -0.10996    8.05786    3.16661   17.98837
     140      444        3     0.66951    8.51276    1.93160   35.96108
     141      444        3    -0.01328    5.85511    6.85962   17.98262
     142      444        3     0.09195    6.59710    5.56754   17.98262
     143      444        3    -0.04102    7.24537    3.74573   34.76531
     144      444        3    -0.04032    7.72146    3.78878   19.19792
     145      444        3    -0.16729    6.99789    4.97791   19.20060
     146      444        3    -0.16150    6.51894    4.93272   34.76815
     147      444        3     0.12685    0.41387   16.18035   31.87917
     148      444        3     0.12673    9.18337   -0.00216   31.80754
     149      444        3    -0.17001    0.50106   -0.00189   30.49264
     150      444        3     0.03906   10.40941   -0.00162   29.73918
     151      444        3    -0.17178    9.18135   16.18036   30.41812
     152      444        3     0.33721   10.45559   16.18054   28.26497
     153      444        3     0.12712    9.48707   16.18136   22.06868
     154      444        3     0.12677    0.71749   -0.00129   22.14032
     155      444        3    -0.16990    9.39991   -0.00114   23.45521
     156      444        3     0.03867   -0.50860   -0.00138   24.20867
     157      444        3    -0.17178    0.71946   16.18079   23.52975
     158      444        3     0.33733   -0.55475   16.18035   25.68288
     159      444        3     0.02680    6.52873    8.09039   18.00053
     160      444        3     0.02777    3.37233    8.08910   35.94881
     161      444        4    -0.07754    8.45368    8.09032   17.98262
     162      444        4    -0.07706    1.44790    8.08917   35.94252
     163      444        5    -0.22402   10.32350   16.18039   32.52446
     164      444        5    -0.17533    0.58155   16.18037   27.67354
     165      444        5    -0.17527    9.27746   -0.00165   27.59778
     166      444        5    -0.22358   -0.42262   16.18131   21.42337
     167      444        5    -0.17511    9.31940   16.18097   26.27426
     168      444        5    -0.17510    0.62342   16.18098   26.35002
     169      444        6    -0.58751    8.83142   14.72138   34.82141
     170      444        6    -0.59072    9.27930   14.71312   19.10691
     171      444        6    -0.58876    1.06923   14.72269   19.12577
     172      444        6    -0.58939    0.62179   14.71180   34.84031
     173      444        6    -0.58875    1.06927    1.45801   19.12581
     174      444        6    -0.58924    0.62181    1.46645   34.84033
     175      444        6    -0.58745    8.83146    1.45689   34.82145
     176      444        6    -0.59083    9.27932    1.46760   19.10696
     177      444        1     0.86447   10.67039   32.36476   16.61673
     178      444        1     0.86373    0.02459   16.18294    1.36585
     179      444        2     0.10371    7.91536   29.10415   15.84788
     180      444        2     0.10338    8.45158   29.03154    2.14671
     181      444        2     0.11170    7.14998   26.89598    2.16025
     182      444        2     0.10998    6.60602   26.97385   15.84454
     183      444        2     0.10402    2.77802   29.10546    2.13457
     184      444        2     0.10291    2.24509   29.03003   15.83564
     185      444        2     0.11087    3.54670   26.89449   15.82326
     186      444        2     0.11084    4.08786   26.97546    2.13907
     187      444        2     0.10402    2.77813   19.44379    2.13466
     188      444        2     0.10298    2.24498   19.51674   15.83574
     189      444        2     0.11091    3.54656   21.65230   15.82337
     190      444        2     0.11088    4.08795   21.57380    2.13918
     191      444        2     0.10369    7.91543   19.44257   15.84799
     192      444        2     0.10339    8.45148   19.51770    2.14684
     193      444        2     0.11167    7.14987   21.65325    2.16036
     194      444        2     0.10999    6.60609   21.57286   15.84464
     195      444        2     0.12127    1.69667   32.36494   14.53191
     196      444        2     0.12049    8.65700   32.36470   14.40422
     197      444        2     0.13698    1.86652   32.36495   12.01419
     198      444        2     0.13725    8.64234   32.36504   11.88120
     199      444        2     0.12119    8.99843   16.18297    3.45072
     200      444        2     0.12060    2.03807   32.36573    3.57845
     201      444        2     0.13681    8.82863   16.18270    5.96845
     202      444        2     0.13718    2.05263   32.36541    6.10147
     203      444        3    -0.10978    8.45495   29.19844    0.00565
     204      444        3     0.66941    8.90983   30.43094   17.97837
     205      444        3    -0.01296    6.25221   25.50531    0.00000
     206      444        3     0.09196    6.99419   26.79738    0.00000
     207      444        3    -0.04098    7.64242   28.61672   16.78258
     208      444        3    -0.04022    8.11860   28.57623    1.21519
     209      444        3    -0.16755    7.39505   27.38710    1.21785
     210      444        3    -0.16154    6.91601   27.42971   16.78542
     211      444        3    -0.10987    2.23996   29.19708   17.97672
     212      444        3     0.66929    1.78501   30.43191    0.00000
     213      444        3    -0.01482    4.44324   25.50414   17.97433
     214      444        3     0.09244    3.70137   26.79626   17.97220
     215      444        3    -0.04041    3.05186   28.61805    1.20012
     216      444        3    -0.04030    2.57739   28.57484   16.76748
     217      444        3    -0.16601    3.30084   27.38564   16.76543
     218      444        3    -0.16349    3.77830   27.43106    1.19791
     219      444        3    -0.10956    2.23994   19.34973   17.97681
     220      444        3     0.66912    1.78504   18.11729    0.00000
     221      444        3    -0.01452    4.44322   23.04267   17.97440
     222      444        3     0.09228    3.70134   21.75056   17.97231
     223      444        3    -0.04079    3.05190   19.93124    1.20023
     224      444        3    -0.04046    2.57730   19.97190   16.76758
     225      444        3    -0.16604    3.30075   21.16111   16.76553
     226      444        3    -0.16337    3.77835   21.11823    1.19802
     227      444        3    -0.10996    8.45495   19.35087    0.00575
     228      444        3     0.66951    8.90985   18.11586   17.97846
     229      444        3    -0.01328    6.25221   23.04388    0.00000
     230      444        3     0.09195    6.99419   21.75180    0.00000
     231      444        3    -0.04102    7.64247   19.92999   16.78269
     232      444        3    -0.04032    8.11855   19.97304    1.21530
     233      444        3    -0.16729    7.39498   21.16217    1.21798
     234      444        3    -0.16150    6.91603   21.11698   16.78553
     235      444        3     0.12685    0.81097   32.36461   13.89655
     236      444        3     0.12673    9.58046   16.18210   13.82493
     237      444        3    -0.17001    0.89815   16.18237   12.51002
     238      444        3     0.03906   10.80650   16.18263   11.75657
     239      444        3    -0.17178    9.57845   32.36461   12.43550
     240      444        3     0.33721   10.85268   32.36480   10.28235
     241      444        3     0.12712    9.88416   32.36562    4.08606
     242      444        3     0.12677    1.11458   16.18297    4.15771
     243      444        3    -0.16990    9.79700   16.18312    5.47260
     244      444        3     0.03867   -0.11151   16.18287    6.22605
     245      444        3    -0.17178    1.11655   32.36505    5.54713
     246      444        3     0.33733   -0.15766   32.36460    7.70026
     247      444        3     0.02680    6.92583   24.27464    0.01791
     248      444        3     0.02777    3.76943   24.27336   17.96620
     249      444        4    -0.07754    8.85077   24.27458    0.00000
     250      444        4    -0.07706    1.84499   24.27342   17.95990
     251      444        5    -0.22402   10.72060   32.36464   14.54184
     252      444        5    -0.17533    0.97864   32.36463    9.69092
     253      444        5    -0.17527    9.67455   16.18260    9.61516
     254      444        5    -0.22358   -0.02553   32.36557    3.44076
     255      444        5    -0.17511    9.71649   32.36523    8.29164
     256      444        5    -0.17510    1.02051   32.36524    8.36740
     257      444        6    -0.58751    9.22851   30.90564   16.83880
     258      444        6    -0.59072    9.67639   30.89738    1.12429
     259      444        6    -0.58876    1.46632   30.90694    1.14315
     260      444        6    -0.58939    1.01888   30.89605   16.85770
     261      444        6    -0.58875    1.46636   17.64227    1.14319
     262      444        6    -0.58924    1.01891   17.65071   16.85771
     263      444        6    -0.58745    9.22856   17.64114   16.83883
     264      444        6    -0.59083    9.67641   17.65185    1.12435
     265      444        1     0.86447   10.27329   32.36350   34.59934
     266      444        1     0.86373   -0.37250   16.18168   19.34847
     267      444        2     0.10371    7.51827   29.10289   33.83050
     268      444        2     0.10338    8.05448   29.03028   20.12933
     269      444        2     0.11170    6.75289   26.89472   20.14287
     270      444        2     0.10998    6.20893   26.97259   33.82715
     271      444        2     0.10402    2.38093   29.10421   20.11719
     272      444        2     0.10291    1.84800   29.02877   33.81825
     273      444        2     0.11087    3.14961   26.89323   33.80588
     274      444        2     0.11084    3.69077   26.97420   20.12168
     275      444        2     0.10402    2.38104   19.44253   20.11728
     276      444        2     0.10298    1.84789   19.51549   33.81836
     277      444        2     0.11091    3.14947   21.65104   33.80599
     278      444        2     0.11088    3.69086   21.57254   20.12179
     279      444        2     0.10369    7.51833   19.44132   33.83061
     280      444        2     0.10339    8.05439   19.51644   20.12945
     281      444        2     0.11167    6.75278   21.65200   20.14298
     282      444        2     0.10999    6.20900   21.57160   33.82726
     283      444        2     0.12127    1.29958   32.36368   32.51453
     284      444        2     0.12049    8.25990   32.36345   32.38684
     285      444        2     0.13698    1.46943   32.36369   29.99680
     286      444        2     0.13725    8.24525   32.36378   29.86382
     287      444        2     0.12119    8.60134   16.18171   21.43334
     288      444        2     0.12060    1.64097   32.36448   21.56107
     289      444        2     0.13681    8.43154   16.18144   23.95106
     290      444        2     0.13718    1.65554   32.36416   24.08408
     291      444        3    -0.10978    8.05786   29.19718   17.98826
     292      444        3     0.66941    8.51274   30.42968   35.96099
     293      444        3    -0.01296    5.85511   25.50406   17.98262
     294      444        3     0.09196    6.59710   26.79613   17.98262
     295      444        3    -0.04098    7.24533   28.61546   34.76520
     296      444        3    -0.04022    7.72151   28.57497   19.19781
     297      444        3    -0.16755    6.99796   27.38585   19.20047
     298      444        3    -0.16154    6.51892   27.42845   34.76804
     299      444        3    -0.10987    1.84287   29.19583   35.95933
     300      444        3     0.66929    1.38792   30.43065   17.98262
     301      444        3    -0.01482    4.04615   25.50288   35.95694
     302      444        3     0.09244    3.30427   26.79500   35.95482
     303      444        3    -0.04041    2.65477   28.61679   19.18274
     304      444        3    -0.04030    2.18030   28.57358   34.75009
     305      444        3    -0.16601    2.90375   27.38439   34.74804
     306      444        3    -0.16349    3.38121   27.42980   19.18053
     307      444        3    -0.10956    1.84284   19.34847   35.95942
     308      444        3     0.66912    1.38794   18.11603   17.98262
     309      444        3    -0.01452    4.04612   23.04142   35.95701
     310      444        3     0.09228    3.30425   21.74930   35.95493
     311      444        3    -0.04079    2.65481   19.92998   19.18285
     312      444        3    -0.04046    2.18021   19.97065   34.75020
     313      444        3    -0.16604    2.90365   21.15986   34.74815
     314      444        3    -0.16337    3.38125   21.11697   19.18064
     315      444        3    -0.10996    8.05786   19.34961   17.98837
     316      444        3     0.66951    8.51276   18.11460   35.96108
     317      444        3    -0.01328    5.85511   23.04262   17.98262
     318      444        3     0.09195    6.59710   21.75054   17.98262
     319      444        3    -0.04102    7.24537   19.92873   34.76531
     320      444        3    -0.04032    7.72146   19.97178   19.19792
     321      444        3    -0.16729    6.99789   21.16091   19.20060
     322      444        3    -0.16150    6.51894   21.11572   34.76815
     323      444        3     0.12685    0.41387   32.36335   31.87917
     324      444        3     0.12673    9.18337   16.18084   31.80754
     325      444        3    -0.17001    0.50106   16.18111   30.49264
     326      444        3     0.03906   10.40941   16.18138   29.73918
     327      444        3    -0.17178    9.18135   32.36336   30.41812
     328      444        3     0.33721   10.45559   32.36354   28.26497
     329      444        3     0.12712    9.48707   32.36436   22.06868
     330      444        3     0.12677    0.71749   16.18171   22.14032
     331      444        3    -0.16990    9.39991   16.18186   23.45521
     332      444        3     0.03867   -0.50860   16.18162   24.20867
     333      444        3    -0.17178    0.71946   32.36379   23.52975
     334      444        3     0.33733   -0.55475   32.36335   25.68288
     335      444        3     0.02680    6.52873   24.27339   18.00053
     336      444        3     0.02777    3.37233   24.27210   35.94881
     337      444        4    -0.07754    8.45368   24.27333   17.98262
     338      444        4    -0.07706    1.44790   24.27217   35.94252
     339      444        5    -0.22402   10.32350   32.36339   32.52446
     340      444        5    -0.17533    0.58155   32.36337   27.67354
     341      444        5    -0.17527    9.27746   16.18135   27.59778
     342      444        5    -0.22358   -0.42262   32.36431   21.42337
     343      444        5    -0.17511    9.31940   32.36397   26.27426
     344      444        5    -0.17510    0.62342   32.36398   26.35002
     345      444        6    -0.58751    8.83142   30.90438   34.82141
     346      444        6    -0.59072    9.27930   30.89612   19.10691
     347      444        6    -0.58876    1.06923   30.90569   19.12577
     348      444        6    -0.58939    0.62179   30.89480   34.84031
     349      444        6    -0.58875    1.06927   17.64101   19.12581
     350      444        6    -0.58924    0.62181   17.64945   34.84033
     351      444        6    -0.58745    8.83146   17.63989   34.82145
     352      444        6    -0.59083    9.27932   17.65060   19.10696
     353      444        1     0.86447   21.76239   16.18176   16.61673
     354      444        1     0.86373   11.11659   -0.00006    1.36585
     355      444        2     0.10371   19.00736   12.92115   15.84788
     356      444        2     0.10338   19.54358   12.84854    2.14671
     357      444        2     0.11170   18.24199   10.71298    2.16025
     358      444        2     0.10998   17.69803   10.79085   15.84454
     359      444        2     0.10402   13.87002   12.92246    2.13457
     360      444        2     0.10291   13.33709   12.84703   15.83564
     361      444        2     0.11087   14.63870   10.71149   15.82326
     362      444        2     0.11084   15.17986   10.79246    2.13907
     363      444        2     0.10402   13.87013    3.26079    2.13466
     364      444        2     0.10298   13.33698    3.33374   15.83574
     365      444        2     0.11091   14.63856    5.46930   15.82337
     366      444        2     0.11088   15.17995    5.39080    2.13918
     367      444        2     0.10369   19.00743    3.25957   15.84799
     368      444        2     0.10339   19.54348    3.33470    2.14684
     369      444        2     0.11167   18.24187    5.47025    2.16036
     370      444        2     0.10999   17.69809    5.38986   15.84464
     371      444        2     0.12127   12.78867   16.18194   14.53191
     372      444        2     0.12049   19.74900   16.18170   14.40422
     373      444        2     0.13698   12.95852   16.18195   12.01419
     374      444        2     0.13725   19.73434   16.18204   11.88120
     375      444        2     0.12119   20.09043   -0.00003    3.45072
     376      444        2     0.12060   13.13007   16.18273    3.57845