Created on Tue Feb 06 14:49:24 2018 

        1984 atoms
        2336 bonds
        4096 angles
        4992 dihedrals
        3072 impropers

           6 atom types
           8 bond types
          15 angle types
           4 dihedral types
           1 improper types
           0.000000  39.194000 xlo xhi
           0.000000  27.754460 ylo yhi
           0.000000  26.578056 zlo zhi
          -6.519972  -6.585214  -7.984132 xy xz yz

Masses

    1    65.380000000 # Zn4+2
    2     1.007940000 # H_
    3    12.010700000 # C_R
    4    32.065000000 # S_R
    5    14.006700000 # N_R
    6    15.999400000 # O_2

Bond Coeffs

    1      104.409475        2.122938  # Zn4+2 O_2
    2      101.478011        2.216443  # Zn4+2 N_R
    3      357.440381        1.081418  # H_ C_R
    4      462.655054        1.379256  # C_R C_R
    5      663.718927        1.345073  # C_R N_R
    6      391.669513        1.458000  # C_R C_R
    7      714.557442        1.269010  # C_R O_2
    8      348.470281        1.701355  # C_R S_R

Angle Coeffs

    1       42.809957               1               4 # N_R Zn4+2 O_2
    2       43.207730               1               4 # O_2 Zn4+2 O_2
    3       76.817955              -1               3 # H_ C_R C_R
    4      165.695700              -1               3 # C_R C_R N_R
    5      109.704024              -1               3 # H_ C_R N_R
    6      117.010657              -1               3 # C_R C_R C_R
    7      101.626578              -1               3 # C_R C_R C_R
    8      148.862838              -1               3 # O_2 C_R C_R
    9      256.805977              -1               3 # O_2 C_R O_2
   10       83.791823              -1               3 # S_R C_R C_R
   11       94.924302              -1               3 # S_R C_R C_R
   12       84.267785              -1               3 # C_R S_R C_R
   13       21.958282              -1               3 # C_R N_R Zn4+2
   14      132.654363              -1               3 # C_R N_R C_R
   15       28.000941              -1               3 # Zn4+2 O_2 C_R

Dihedral Coeffs

    1        1.497136              -1               2 # H_ C_R C_R C_R
    2        0.555556              -1               2 # C_R C_R C_R C_R
    3        2.245703              -1               2 # C_R C_R O_2 Zn4+2
    4        1.775384              -1               2 # C_R C_R S_R C_R

Improper Coeffs

    1        2.000000        1.000000       -1.000000        0.000000               0 # N_R C_R H_ C_R

Pair Coeffs

    1        0.124000        2.461553 # Zn4+2 Zn4+2
    2        0.044000        2.571134 # H_ H_
    3        0.105000        3.430851 # C_R C_R
    4        0.274000        3.594776 # S_R S_R
    5        0.069000        3.260689 # N_R N_R
    6        0.060000        3.118146 # O_2 O_2

Atoms

       1      444        1     0.92752    5.25191   10.50353    3.60571
       2      444        1     0.92752   15.05055   10.50357    3.60571
       3      444        1     0.92752    2.91004    9.45399    2.19242
       4      444        1     0.92752   12.70859    9.45405    2.19242
       5      444        1     0.92752   -2.00667   -0.61850    9.68332
       6      444        1     0.92752    7.79204   -0.61848    9.68332
       7      444        1     0.92752    0.33530    0.43106   11.09660
       8      444        1     0.92752   10.13387    0.43123   11.09634
       9      444        2     0.10855   -3.87033   10.73052    6.51681
      10      444        2     0.10855    5.92745   10.73339    6.51694
      11      444        2     0.10855   -1.93035   11.26863    7.92252
      12      444        2     0.10855    7.86720   11.27207    7.92265
      13      444        2     0.10855    0.28001   12.07819    4.27574
      14      444        2     0.10855   10.07991   12.07374    4.27548
      15      444        2     0.10855   -1.78474   11.55355    3.03428
      16      444        2     0.10855    8.01486   11.55030    3.03402
      17      444        2     0.10855   -2.02122    6.49175    3.60186
      18      444        2     0.10855    7.77749    6.49167    3.60186
      19      444        2     0.10855   -1.75167    3.86248    3.42099
      20      444        2     0.10855    8.04697    3.86237    3.42113
      21      444        2     0.10855    4.30580   -0.29922    1.01967
      22      444        2     0.10855   14.10424   -0.29916    1.01980
      23      444        2     0.10855    4.27878    2.33258    0.86246
      24      444        2     0.10855   14.07729    2.33264    0.86246
      25      444        2     0.10855    2.22951    6.72656    1.14990
      26      444        2     0.10855   12.02833    6.72677    1.14924
      27      444        2     0.10855    0.28801    5.53359    0.23548
      28      444        2     0.10855   10.08693    5.53390    0.23455
      29      444        2     0.10855   -1.90961    9.26958    0.46844
      30      444        2     0.10855    7.88861    9.26932    0.46963
      31      444        2     0.10855    0.15428   10.30641    1.33103
      32      444        2     0.10855    9.95263   10.30632    1.33169
      33      444        2     0.10855    0.38027    8.30778    6.03189
      34      444        2     0.10855   10.17882    8.30778    6.03189
      35      444        2     0.10855    0.10412    7.72561    8.60146
      36      444        2     0.10855    9.90279    7.72552    8.60132
      37      444        2     0.10855   -5.96279    8.81923   13.28730
      38      444        2     0.10855    3.83578    8.81911   13.28743
      39      444        2     0.10855    3.87367    9.72653   10.81195
      40      444        2     0.10855   13.67224    9.72637   10.81235
      41      444        2     0.10855    7.11102   -0.82948    6.77315
      42      444        2     0.10855   16.90872   -0.82641    6.77328
      43      444        2     0.10855    5.17021   -1.36494    5.36717
      44      444        2     0.10855   14.96765   -1.36122    5.36731
      45      444        2     0.10855    2.97246   -2.21663    9.01182
      46      444        2     0.10855   12.77250   -2.22150    9.01142
      47      444        2     0.10855    5.03578   -1.68661   10.25355
      48      444        2     0.10855   14.83554   -1.69033   10.25315
      49      444        2     0.10855    5.26654    3.39387    9.68757
      50      444        2     0.10855   15.06524    3.39379    9.68757
      51      444        2     0.10855    4.99770    6.02324    9.86777
      52      444        2     0.10855   14.79638    6.02315    9.86777
      53      444        2     0.10855   -1.05996   10.18472   12.26923
      54      444        2     0.10855    8.73856   10.18512   12.26843
      55      444        2     0.10855   -1.03242    7.55290   12.42644
      56      444        2     0.10855    8.76600    7.55300   12.42657
      57      444        2     0.10855    1.01081    3.15451   12.15587
      58      444        2     0.10855   10.80905    3.15425   12.15720
      59      444        2     0.10855    2.95133    4.34637   13.07308
      60      444        2     0.10855   12.74950    4.34596   13.07468
      61      444        2     0.10855    5.16268    0.62139   12.79547
      62      444        2     0.10855   14.96185    0.62182   12.79348
      63      444        2     0.10855    3.09850   -0.41539   11.93355
      64      444        2     0.10855   12.89627   -0.41655   11.93714
      65      444        2     0.10855    2.86524    1.57757    7.25754
      66      444        2     0.10855   12.66380    1.57754    7.25754
      67      444        2     0.10855    3.14198    2.15911    4.68797
      68      444        2     0.10855   12.94054    2.15907    4.68797
      69      444        2     0.10855    9.20857    1.06576    0.00199
      70      444        2     0.10855   19.00696    1.06578    0.00213
      71      444        2     0.10855   -0.62742    0.15850    2.47707
      72      444        2     0.10855    9.17133    0.15851    2.47694
      73      444        3     0.16393   -2.92951   11.04099    6.06511
      74      444        3     0.16393    6.86868   11.04244    6.06511
      75      444        3    -0.11983   -1.81962   11.33640    6.84425
      76      444        3    -0.11983    7.97853   11.33798    6.84425
      77      444        3     0.09960   -0.61068   11.72187    6.24132
      78      444        3     0.09960    9.18809   11.72133    6.24119
      79      444        3    -0.11983   -0.60798   11.79637    4.83641
      80      444        3    -0.11983    9.19136   11.79406    4.83614
      81      444        3     0.16393   -1.75981   11.49523    4.12212
      82      444        3     0.16393    8.03967   11.49349    4.12093
      83      444        3     0.69700    5.20178    7.62500    2.82923
      84      444        3     0.69700   15.00035    7.62505    2.82910
      85      444        3    -0.11575    5.75177    6.25518    2.86073
      86      444        3    -0.11575   15.55026    6.25521    2.86086
      87      444        3    -0.11983    7.00044    5.80988    3.26312
      88      444        3    -0.11983   16.79893    5.80992    3.26325
      89      444        3    -0.11983    7.13726    4.40823    3.17302
      90      444        3    -0.11983   16.93581    4.40828    3.17302
      91      444        3    -0.11575    5.98727    3.78001    2.69634
      92      444        3    -0.11575   15.78572    3.77994    2.69674
      93      444        3    -0.11575    5.74349    2.37059    2.48518
      94      444        3    -0.11575   15.54205    2.37066    2.48518
      95      444        3    -0.11575    5.79145   -0.12486    2.58950
      96      444        3    -0.11575   15.58997   -0.12482    2.58963
      97      444        3    -0.11983    4.89036    0.36073    1.65488
      98      444        3    -0.11983   14.68887    0.36076    1.65502
      99      444        3    -0.11983    4.87066    1.76815    1.58060
     100      444        3    -0.11983   14.66915    1.76818    1.58073
     101      444        3     0.69700    2.96698   12.35659    2.79468
     102      444        3     0.69700   12.76527   12.35637    2.79575
     103      444        3     0.16393    1.29082    7.24997    0.97608
     104      444        3     0.16393   11.08955    7.25012    0.97568
     105      444        3    -0.11983    0.18051    6.58872    0.47017
     106      444        3    -0.11983    9.97919    6.58884    0.46990
     107      444        3     0.09960   -1.02580    7.27932    0.26538
     108      444        3     0.09960    8.77279    7.27936    0.26538
     109      444        3    -0.11983   -1.02463    8.64898    0.58684
     110      444        3    -0.11983    8.77374    8.64887    0.58751
     111      444        3     0.16393    0.12708    9.24607    1.08146
     112      444        3     0.16393    9.92552    9.24603    1.08186
     113      444        3     0.69700    2.95851    9.36859    5.17329
     114      444        3     0.69700   12.75700    9.36885    5.17329
     115      444        3    -0.11575    2.40554    8.94678    6.47574
     116      444        3    -0.11575   12.20401    8.94704    6.47574
     117      444        3    -0.11983    1.15558    8.43537    6.78431
     118      444        3    -0.11983   10.95420    8.43531    6.78418
     119      444        3    -0.11983    1.01558    8.11875    8.15229
     120      444        3    -0.11983   10.81417    8.11877    8.15229
     121      444        3    -0.11575    2.16443    8.39234    8.89381
     122      444        3    -0.11575   11.96297    8.39247    8.89381
     123      444        3    -0.11575    2.40402    8.18873   10.30511
     124      444        3    -0.11575   12.20260    8.18882   10.30511
     125      444        3    -0.11575    2.34624    7.37139   12.66511
     126      444        3    -0.11575   12.14475    7.37160   12.66511
     127      444        3    -0.11983    3.25219    8.40237   12.47096
     128      444        3    -0.11983   13.05086    8.40241   12.47096
     129      444        3    -0.11983    3.27744    8.87843   11.14458
     130      444        3    -0.11983   13.07604    8.87850   11.14458
     131      444        3     0.69700    5.19893   10.76604    0.65289
     132      444        3     0.69700   14.99756   10.76620    0.65289
     133      444        3     0.16393    6.17248   -1.14746    7.22405
     134      444        3     0.16393   15.97059   -1.14581    7.22405
     135      444        3    -0.11983    5.06251   -1.44275    6.44518
     136      444        3    -0.11983   14.86065   -1.44114    6.44518
     137      444        3     0.09960    3.85682   -1.83908    7.04744
     138      444        3     0.09960   13.65552   -1.83951    7.04744
     139      444        3    -0.11983    3.85729   -1.92397    8.45182
     140      444        3    -0.11983   13.65674   -1.92674    8.45156
     141      444        3     0.16393    5.00865   -1.62105    9.16611
     142      444        3     0.16393   14.80792   -1.62337    9.16597
     143      444        3     0.69700   -1.95648    2.26000   10.46046
     144      444        3     0.69700    7.84212    2.26009   10.46033
     145      444        3    -0.11575   -2.50643    3.62987   10.42923
     146      444        3    -0.11575    7.29211    3.62996   10.42923
     147      444        3    -0.11983   -3.75484    4.07546   10.02631
     148      444        3    -0.11983    6.04370    4.07554   10.02631
     149      444        3    -0.11983   -3.89131    5.47716   10.11614
     150      444        3    -0.11983    5.90725    5.47724   10.11614
     151      444        3    -0.11575   -2.74116    6.10530   10.59255
     152      444        3    -0.11575    7.05769    6.10576   10.59136
     153      444        3    -0.11575   -2.49736    7.51462   10.80385
     154      444        3    -0.11575    7.30115    7.51474   10.80385
     155      444        3    -0.11575   -2.54552   10.01006   10.69926
     156      444        3    -0.11575    7.25295   10.01016   10.69926
     157      444        3    -0.11983   -1.64435    9.52467   11.63388
     158      444        3    -0.11983    8.15412    9.52472   11.63401
     159      444        3    -0.11983   -1.62448    8.11722   11.70830
     160      444        3    -0.11983    8.17393    8.11732   11.70843
     161      444        3     0.69700    0.27894   -2.47113   10.49328
     162      444        3     0.69700   10.07731   -2.47108   10.49342
     163      444        3     0.16393    1.95189    2.63281   12.32172
     164      444        3     0.16393   11.75034    2.63272   12.32225
     165      444        3    -0.11983    3.06224    3.29406   12.82763
     166      444        3    -0.11983   12.86061    3.29386   12.82843
     167      444        3     0.09960    4.27196    2.60619   13.02125
     168      444        3     0.09960   14.07068    2.60627   13.02086
     169      444        3    -0.11983    4.27432    1.23923   12.68850
     170      444        3    -0.11983   14.07321    1.23943   12.68757
     171      444        3     0.16393    3.12203    0.64163   12.19587
     172      444        3     0.16393   12.92092    0.64191   12.19481
     173      444        3     0.69700    0.28682    0.51702    8.11588
     174      444        3     0.69700   10.08533    0.51716    8.11588
     175      444        3    -0.11575    0.83980    0.93911    6.81355
     176      444        3    -0.11575   10.63830    0.93939    6.81355
     177      444        3    -0.11983    2.08999    1.45009    6.50511
     178      444        3    -0.11983   11.88854    1.45014    6.50511
     179      444        3    -0.11983    2.23032    1.76635    5.13714
     180      444        3    -0.11983   12.02890    1.76644    5.13701
     181      444        3    -0.11575    1.08154    1.49287    4.39548
     182      444        3    -0.11575   10.88027    1.49325    4.39468
     183      444        3    -0.11575    0.84208    1.69624    2.98405
     184      444        3    -0.11575   10.64060    1.69640    2.98405
     185      444        3    -0.11575    0.89959    2.51335    0.62405
     186      444        3    -0.11575   10.69821    2.51351    0.62405
     187      444        3    -0.11983   -0.00635    1.48247    0.81834
     188      444        3    -0.11983    9.79237    1.48255    0.81821
     189      444        3    -0.11983   -0.03012    1.00804    2.13953
     190      444        3    -0.11983    9.76724    1.00654    2.14472
     191      444        3     0.69700   -1.95347   -0.88106   12.63627
     192      444        3     0.69700    7.84528   -0.88095   12.63627
     193      444        4     0.12098    4.73924    4.94186    2.37329
     194      444        4     0.12098   14.53775    4.94189    2.37342
     195      444        4     0.12098    6.57685    1.17361    3.42764
     196      444        4     0.12098   16.37560    1.17379    3.42724
     197      444        4     0.12098    3.41504    9.03482    7.87614
     198      444        4     0.12098   13.21378    9.03531    7.87508
     199      444        4     0.12098    1.56372    6.94472   11.17807
     200      444        4     0.12098   11.36225    6.94485   11.17807
     201      444        4     0.12098   -1.49361    4.94306   10.91654
     202      444        4     0.12098    8.30516    4.94343   10.91561
     203      444        4     0.12098   -3.33079    8.71146    9.86126
     204      444        4     0.12098    6.46789    8.71155    9.86112
     205      444        4     0.12098   -0.16938    0.85104    5.41289
     206      444        4     0.12098    9.62910    0.85133    5.41289
     207      444        4     0.12098    1.68245    2.93997    2.11096
     208      444        4     0.12098   11.48090    2.94027    2.11096
     209      444        5    -0.30316   -2.91075   11.11483    4.71694
     210      444        5    -0.30316    6.88785   11.11471    4.71694
     211      444        5    -0.30316    1.27537    8.56491    1.28399
     212      444        5    -0.30316   11.07396    8.56496    1.28399
     213      444        5    -0.30316    6.15650   -1.23048    8.57182
     214      444        5    -0.30316   15.95516   -1.23073    8.57182
     215      444        5    -0.30316    1.97034    1.32022   12.00424
     216      444        5    -0.30316   11.76895    1.32027   12.00411
     217      444        6    -0.59355    5.96210    8.58384    3.17183
     218      444        6    -0.59355   15.76060    8.58386    3.17196
     219      444        6    -0.59355    4.18199    9.75111    5.18963
     220      444        6    -0.59355   13.98054    9.75107    5.18963
     221      444        6    -0.59355    3.96294   12.17458    3.57634
     222      444        6    -0.59355   13.76176   12.17469    3.57608
     223      444        6    -0.59355    2.32541   11.45079    2.16040
     224      444        6    -0.59355   12.12368   11.45081    2.16080
     225      444        6    -0.59355    2.19888    9.31616    4.15574
     226      444        6    -0.59355   11.99742    9.31606    4.15574
     227      444        6    -0.59355    3.97886    7.72085    2.45621
     228      444        6    -0.59355   13.77739    7.72089    2.45621
     229      444        6    -0.59355    4.20121    9.96809    0.60093
     230      444        6    -0.59355   13.99976    9.96840    0.60093
     231      444        6    -0.59355    5.83897   11.11295    1.70392
     232      444        6    -0.59355   15.63775   11.11294    1.70392
     233      444        6    -0.59355   -2.71674    1.30128   10.11720
     234      444        6    -0.59355    7.08191    1.30142   10.11694
     235      444        6    -0.59355   -0.93663    0.13429    8.09953
     236      444        6    -0.59355    8.86188    0.13445    8.09940
     237      444        6    -0.59355   -0.71742   -2.28947    9.71268
     238      444        6    -0.59355    9.08161   -2.28930    9.71202
     239      444        6    -0.59355    0.92028   -1.56555   11.12823
     240      444        6    -0.59355   10.71828   -1.56562   11.12903
     241      444        6    -0.59355    1.04655    0.56895    9.13328
     242      444        6    -0.59355   10.84508    0.56890    9.13328
     243      444        6    -0.59355   -0.73352    2.16412   10.83322
     244      444        6    -0.59355    9.06507    2.16424   10.83308
     245      444        6    -0.59355   -0.95547   -0.08357   12.68810
     246      444        6    -0.59355    8.84291   -0.08294   12.68810
     247      444        6    -0.59355   -2.59386   -1.22766   11.58524
     248      444        6    -0.59355    7.20523   -1.22793   11.58511
     249      444        1     0.92752    1.95930    6.51146   16.89474
     250      444        1     0.92752   11.75795    6.51150   16.89474
     251      444        1     0.92752   -0.38256    5.46192   15.48145
     252      444        1     0.92752    9.41598    5.46198   15.48145
     253      444        1     0.92752   -5.29928   -4.61057   22.97234
     254      444        1     0.92752    4.49943   -4.61054   22.97234
     255      444        1     0.92752   -2.95731   -3.56100   24.38563
     256      444        1     0.92752    6.84126   -3.56084   24.38537
     257      444        2     0.10855   -7.16294    6.73845   19.80583
     258      444        2     0.10855    2.63484    6.74133   19.80597
     259      444        2     0.10855   -5.22296    7.27656   21.21155
     260      444        2     0.10855    4.57459    7.28000   21.21168
     261      444        2     0.10855   -3.01260    8.08612   17.56477
     262      444        2     0.10855    6.78730    8.08168   17.56451
     263      444        2     0.10855   -5.07735    7.56148   16.32331
     264      444        2     0.10855    4.72226    7.55823   16.32305
     265      444        2     0.10855   -5.31383    2.49969   16.89089
     266      444        2     0.10855    4.48489    2.49960   16.89089
     267      444        2     0.10855   -5.04427   -0.12959   16.71002
     268      444        2     0.10855    4.75437   -0.12970   16.71016
     269      444        2     0.10855    1.01319   -4.29129   14.30870
     270      444        2     0.10855   10.81163   -4.29123   14.30883
     271      444        2     0.10855    0.98617   -1.65948   14.15149
     272      444        2     0.10855   10.78468   -1.65943   14.15149
     273      444        2     0.10855   -1.06309    2.73449   14.43893
     274      444        2     0.10855    8.73573    2.73470   14.43826
     275      444        2     0.10855   -3.00460    1.54153   13.52451
     276      444        2     0.10855    6.79432    1.54184   13.52358
     277      444        2     0.10855   -5.20222    5.27752   13.75747
     278      444        2     0.10855    4.59600    5.27725   13.75866
     279      444        2     0.10855   -3.13832    6.31434   14.62006
     280      444        2     0.10855    6.66003    6.31426   14.62072
     281      444        2     0.10855   -2.91234    4.31571   19.32092
     282      444        2     0.10855    6.88622    4.31571   19.32092
     283      444        2     0.10855   -3.18848    3.73355   21.89048
     284      444        2     0.10855    6.61018    3.73345   21.89035
     285      444        2     0.10855   -9.25539    4.82717   26.57633
     286      444        2     0.10855    0.54317    4.82704   26.57646
     287      444        2     0.10855    0.58107    5.73446   24.10098
     288      444        2     0.10855   10.37963    5.73430   24.10138
     289      444        2     0.10855    3.81841   -4.82155   20.06218
     290      444        2     0.10855   13.61611   -4.81848   20.06231
     291      444        2     0.10855    1.87760   -5.35701   18.65620
     292      444        2     0.10855   11.67504   -5.35329   18.65633
     293      444        2     0.10855   -0.32015   -6.20870   22.30085
     294      444        2     0.10855    9.47990   -6.21356   22.30045
     295      444        2     0.10855    1.74317   -5.67867   23.54258
     296      444        2     0.10855   11.54293   -5.68240   23.54218
     297      444        2     0.10855    1.97393   -0.59819   22.97660
     298      444        2     0.10855   11.77263   -0.59827   22.97660
     299      444        2     0.10855    1.70510    2.03117   23.15680
     300      444        2     0.10855   11.50377    2.03109   23.15680
     301      444        2     0.10855   -4.35257    6.19265   25.55826
     302      444        2     0.10855    5.44595    6.19306   25.55746
     303      444        2     0.10855   -4.32502    3.56083   25.71547
     304      444        2     0.10855    5.47339    3.56093   25.71560
     305      444        2     0.10855   -2.28180   -0.83756   25.44490
     306      444        2     0.10855    7.51644   -0.83782   25.44623
     307      444        2     0.10855   -0.34127    0.35430   26.36211
     308      444        2     0.10855    9.45689    0.35389   26.36370
     309      444        2     0.10855    1.87007   -3.37067   26.08450
     310      444        2     0.10855   11.66924   -3.37024   26.08251
     311      444        2     0.10855   -0.19411   -4.40745   25.22258
     312      444        2     0.10855    9.60366   -4.40861   25.22616
     313      444        2     0.10855   -0.42737   -2.41449   20.54657
     314      444        2     0.10855    9.37119   -2.41452   20.54657
     315      444        2     0.10855   -0.15063   -1.83296   17.97700
     316      444        2     0.10855    9.64794   -1.83300   17.97700
     317      444        2     0.10855    5.91597   -2.92631   13.29102
     318      444        2     0.10855   15.71436   -2.92628   13.29115
     319      444        2     0.10855   -3.92003   -3.83357   15.76610
     320      444        2     0.10855    5.87873   -3.83356   15.76597
     321      444        3     0.16393   -6.22211    7.04893   19.35414
     322      444        3     0.16393    3.57607    7.05037   19.35414
     323      444        3    -0.11983   -5.11223    7.34433   20.13328
     324      444        3    -0.11983    4.68592    7.34591   20.13328
     325      444        3     0.09960   -3.90329    7.72981   19.53035
     326      444        3     0.09960    5.89548    7.72926   19.53022
     327      444        3    -0.11983   -3.90059    7.80431   18.12544
     328      444        3    -0.11983    5.89876    7.80200   18.12517
     329      444        3     0.16393   -5.05242    7.50316   17.41115
     330      444        3     0.16393    4.74706    7.50142   17.40996
     331      444        3     0.69700    1.90918    3.63293   16.11826
     332      444        3     0.69700   11.70774    3.63298   16.11813
     333      444        3    -0.11575    2.45916    2.26311   16.14976
     334      444        3    -0.11575   12.25765    2.26314   16.14989
     335      444        3    -0.11983    3.70783    1.81781   16.55215
     336      444        3    -0.11983   13.50632    1.81785   16.55228
     337      444        3    -0.11983    3.84465    0.41616   16.46205
     338      444        3    -0.11983   13.64320    0.41622   16.46205
     339      444        3    -0.11575    2.69466   -0.21205   15.98537
     340      444        3    -0.11575   12.49311   -0.21213   15.98577
     341      444        3    -0.11575    2.45088   -1.62148   15.77421
     342      444        3    -0.11575   12.24944   -1.62141   15.77421
     343      444        3    -0.11575    2.49884   -4.11693   15.87853
     344      444        3    -0.11575   12.29737   -4.11688   15.87866
     345      444        3    -0.11983    1.59776   -3.63134   14.94391
     346      444        3    -0.11983   11.39626   -3.63131   14.94404
     347      444        3    -0.11983    1.57805   -2.22392   14.86963
     348      444        3    -0.11983   11.37654   -2.22389   14.86976
     349      444        3     0.69700   -0.32563    8.36452   16.08371
     350      444        3     0.69700    9.47266    8.36430   16.08477
     351      444        3     0.16393   -2.00179    3.25791   14.26511
     352      444        3     0.16393    7.79694    3.25805   14.26471
     353      444        3    -0.11983   -3.11209    2.59665   13.75919
     354      444        3    -0.11983    6.68658    2.59677   13.75893
     355      444        3     0.09960   -4.31841    3.28725   13.55441
     356      444        3     0.09960    5.48018    3.28729   13.55441
     357      444        3    -0.11983   -4.31724    4.65691   13.87587
     358      444        3    -0.11983    5.48113    4.65681   13.87654
     359      444        3     0.16393   -3.16553    5.25400   14.37049
     360      444        3     0.16393    6.63291    5.25397   14.37089
     361      444        3     0.69700   -0.33410    5.37652   18.46231
     362      444        3     0.69700    9.46440    5.37678   18.46231
     363      444        3    -0.11575   -0.88707    4.95471   19.76477
     364      444        3    -0.11575    8.91141    4.95498   19.76477
     365      444        3    -0.11983   -2.13703    4.44330   20.07334
     366      444        3    -0.11983    7.66159    4.44324   20.07321
     367      444        3    -0.11983   -2.27703    4.12668   21.44132
     368      444        3    -0.11983    7.52156    4.12671   21.44132
     369      444        3    -0.11575   -1.12818    4.40027   22.18284
     370      444        3    -0.11575    8.67036    4.40041   22.18284
     371      444        3    -0.11575   -0.88858    4.19667   23.59414
     372      444        3    -0.11575    8.90999    4.19675   23.59414
     373      444        3    -0.11575   -0.94637    3.37932   25.95414
     374      444        3    -0.11575    8.85214    3.37953   25.95414
     375      444        3    -0.11983   -0.04041    4.41030   25.75998
     376      444        3    -0.11983    9.75825    4.41034   25.75998
     377      444        3    -0.11983   -0.01517    4.88637   24.43361