Created on Tue Feb 06 14:44:50 2018 

        3264 atoms
        3744 bonds
        6528 angles
        8064 dihedrals
        5184 impropers

           6 atom types
          10 bond types
          18 angle types
           3 dihedral types
           1 improper types
           0.000000  37.208000 xlo xhi
           0.000000  36.035179 ylo yhi
           0.000000  31.278074 zlo zhi
         -12.384696  12.482321  17.856530 xy xz yz

Masses

    1    65.380000000 # Zn4+2
    2     1.007940000 # H_
    3    12.010700000 # C_R
    4    14.006700000 # N_R
    5    15.999400000 # O_R
    6    15.999400000 # O_2

Bond Coeffs

    1      127.647979        1.985391  # Zn4+2 O_R
    2      132.439384        2.028187  # Zn4+2 N_R
    3      104.409475        2.122938  # Zn4+2 O_2
    4      101.478011        2.216443  # Zn4+2 N_R
    5      357.440381        1.081418  # H_ C_R
    6      646.680887        1.311940  # C_R O_R
    7      391.669513        1.458000  # C_R C_R
    8      462.655054        1.379256  # C_R C_R
    9      663.718927        1.345073  # C_R N_R
   10      714.557442        1.269010  # C_R O_2

Angle Coeffs

    1       60.397389               1               4 # O_R Zn4+2 O_R
    2       63.300260               1               4 # O_R Zn4+2 N_R
    3       42.809957               1               4 # N_R Zn4+2 O_2
    4       43.207730               1               4 # O_2 Zn4+2 O_2
    5      137.761490              -1               3 # O_R C_R C_R
    6      217.450257              -1               3 # O_R C_R O_R
    7      101.626578              -1               3 # C_R C_R C_R
    8      117.010657              -1               3 # C_R C_R C_R
    9       76.817955              -1               3 # H_ C_R C_R
   10      165.695700              -1               3 # C_R C_R N_R
   11      109.704024              -1               3 # H_ C_R N_R
   12      256.805977              -1               3 # O_2 C_R O_2
   13      148.862838              -1               3 # O_2 C_R C_R
   14       28.941661              -1               3 # Zn4+2 N_R C_R
   15      132.654363              -1               3 # C_R N_R C_R
   16       21.958282              -1               3 # C_R N_R Zn4+2
   17       39.831479              -1               3 # Zn4+2 O_R C_R
   18       28.000941              -1               3 # C_R O_2 Zn4+2

Dihedral Coeffs

    1        2.245703              -1               2 # O_R C_R O_R Zn4+2
    2        0.555556              -1               2 # O_R C_R C_R C_R
    3        1.497136              -1               2 # C_R C_R C_R C_R

Improper Coeffs

    1        2.000000        1.000000       -1.000000        0.000000               0 # O_R C_R O_R C_R

Pair Coeffs

    1        0.124000        2.461553 # Zn4+2 Zn4+2
    2        0.044000        2.571134 # H_ H_
    3        0.105000        3.430851 # C_R C_R
    4        0.069000        3.260689 # N_R N_R
    5        0.060000        3.118146 # O_R O_R
    6        0.060000        3.118146 # O_2 O_2

Atoms

       1      444        1     0.93093    5.55092    9.79386    1.08770
       2      444        1     0.93093   11.76578    5.01498    6.59905
       3      444        1     0.93093   17.96938   12.14071    7.94541
       4      444        1     0.93093   16.16369    8.21987    1.08222
       5      444        1     0.93093    9.98459   12.92006    6.60139
       6      444        1     0.93093    3.77658    5.79796    7.96324
       7      444        1     0.93093   13.10156   17.15194   14.55134
       8      444        1     0.93093    6.88667   21.93095    9.04015
       9      444        1     0.93093    0.68306   14.80515    7.69362
      10      444        1     0.93093    2.48883   18.72607   14.55697
      11      444        1     0.93093    8.66785   14.02579    9.03780
      12      444        1     0.93093   14.87587   21.14783    7.67580
      13      444        2     0.10195    8.71068    9.23530    4.24631
      14      444        2     0.10195    5.37462    4.30384    0.13324
      15      444        2     0.10195    5.40421   15.38115    4.82152
      16      444        2     0.10195    1.37422   12.95019    3.95167
      17      444        2     0.10195    0.88124   10.80846    2.73386
      18      444        2     0.10195    2.78154    9.59243    1.63631
      19      444        2     0.10195    7.19750   14.00088    3.81233
      20      444        2     0.10195    3.03347   14.61204    4.71845
      21      444        2     0.10195    6.65724   11.87460    2.63096
      22      444        2     0.10195   14.92937    8.01822    5.47757
      23      444        2     0.10195   11.58546    6.93224   11.84657
      24      444        2     0.10195   17.79666   14.33016   15.53738
      25      444        2     0.10195    7.55359    5.93065    2.47456
      26      444        2     0.10195    7.08651    5.97490    4.94209
      27      444        2     0.10195    9.00086    5.63196    6.52820
      28      444        2     0.10195   13.36327    5.21479    1.58345
      29      444        2     0.10195    9.19527    5.73043    0.63557
      30      444        2     0.10195   12.84672    5.28725    4.01986
      31      444        2     0.10195    2.53016    9.67126    5.89373
      32      444        2     0.10195   -0.77052   15.73295    3.67971
      33      444        2     0.10195   11.57732   24.17856   10.99690
      34      444        2     0.10195   13.76091    8.12674    9.26691
      35      444        2     0.10195   13.29007   10.23128    7.97982
      36      444        2     0.10195   15.20411   11.76943    7.46107
      37      444        2     0.10195   19.57736    7.70070   10.28689
      38      444        2     0.10195   15.40542    6.63868   10.35977
      39      444        2     0.10195   19.05689    9.76596    8.99307
      40      444        2     0.10195   13.00078    8.73820    4.24866
      41      444        2     0.10195   -2.24821   13.72548    0.14638
      42      444        2     0.10195   10.16886   20.60841    4.73863
      43      444        2     0.10195    1.76533    5.08690    3.92665
      44      444        2     0.10195    2.23677    7.24954    2.73918
      45      444        2     0.10195    0.32522    8.45846    1.65195
      46      444        2     0.10195   14.55842    3.96473    3.74101
      47      444        2     0.10195   18.72469    3.39366    4.66466
      48      444        2     0.10195   15.07894    6.11439    2.59358
      49      444        2     0.10195    6.82115    9.91604    5.47523
      50      444        2     0.10195   10.12153   11.00159   11.83719
      51      444        2     0.10195   16.41887   21.54447   15.53457
      52      444        2     0.10195   14.18789   12.07981    2.45580
      53      444        2     0.10195   14.66054   11.99650    4.92114
      54      444        2     0.10195   12.74825   12.30732    6.51632
      55      444        2     0.10195    8.37101   12.75511    1.58658
      56      444        2     0.10195   12.54298   12.29923    0.62368
      57      444        2     0.10195    8.89336   12.65051    4.02064
      58      444        2     0.10195   19.21858    8.26896    5.91625
      59      444        2     0.10195    3.93853    2.25201    3.65797
      60      444        2     0.10195    3.94098   11.81275   10.96156
      61      444        2     0.10195    7.96590    9.83977    9.28177
      62      444        2     0.10195    8.45257    7.71754    8.02893
      63      444        2     0.10195    6.54750    6.16615    7.51769
      64      444        2     0.10195   20.74759   10.25496   10.26718
      65      444        2     0.10195    6.31002   11.33624   10.34256
      66      444        2     0.10195    2.67810    8.17300    9.00652
      67      444        2     0.10195    9.94177   17.71053   11.39273
      68      444        2     0.10195   13.27784   22.64196   15.50579
      69      444        2     0.10195   13.24820   11.56463   10.81752
      70      444        2     0.10195   17.27821   13.99557   11.68737
      71      444        2     0.10195   17.77123   16.13731   12.90518
      72      444        2     0.10195   15.87092   17.35336   14.00272
      73      444        2     0.10195   11.45494   12.94497   11.82671
      74      444        2     0.10195   15.61895   12.33372   10.92058
      75      444        2     0.10195   11.99522   15.07125   13.00808
      76      444        2     0.10195    3.72315   18.92769   10.16162
      77      444        2     0.10195    7.06656   20.01301    3.79153
      78      444        2     0.10195    0.85573   12.61559    0.10165
      79      444        2     0.10195   11.09887   21.01521   13.16463
      80      444        2     0.10195   11.56596   20.97099   10.69710
      81      444        2     0.10195    9.65161   21.31396    9.11099
      82      444        2     0.10195    5.28914   21.73096   14.05558
      83      444        2     0.10195    9.45718   21.21541   15.00362
      84      444        2     0.10195    5.80576   21.65863   11.61934
      85      444        2     0.10195   16.12227   17.27456    9.74531
      86      444        2     0.10195   19.42292   11.21296   11.95933
      87      444        2     0.10195    7.07513    2.76740    4.64229
      88      444        2     0.10195    4.89155   18.81923    6.37228
      89      444        2     0.10195    5.36237   16.71459    7.65922
      90      444        2     0.10195    3.44837   15.17645    8.17797
      91      444        2     0.10195   -0.92493   19.24514    5.35215
      92      444        2     0.10195    3.24698   20.30720    5.27927
      93      444        2     0.10195   -0.40443   17.17987    6.64597
      94      444        2     0.10195    5.65145   18.20733   11.38991
      95      444        2     0.10195   20.90060   13.22043   15.49266
      96      444        2     0.10195    8.48171    6.33486   10.89587
      97      444        2     0.10195   16.88716   21.85897   11.71254
      98      444        2     0.10195   16.41567   19.69624   12.89986
      99      444        2     0.10195   18.32734   18.48744   13.98724
     100      444        2     0.10195    4.09400   22.98114   11.89802
     101      444        2     0.10195   -0.07230   23.55215   10.97438
     102      444        2     0.10195    3.57352   20.83148   13.04546
     103      444        2     0.10195   11.83078   17.02903   10.16256
     104      444        2     0.10195    8.53088   15.94426    3.80201
     105      444        2     0.10195    2.23353    5.40133    0.10447
     106      444        2     0.10195    4.46457   14.86605   13.18340
     107      444        2     0.10195    3.99192   14.94935   10.71806
     108      444        2     0.10195    5.90419   14.63853    9.12288
     109      444        2     0.10195   10.28146   14.19081   14.05261
     110      444        2     0.10195    6.10947   14.64664   15.01551
     111      444        2     0.10195    9.75903   14.29531   11.61840
     112      444        2     0.10195   -0.56611   18.67680    9.72279
     113      444        2     0.10195   14.71365   24.69345   11.98044
     114      444        2     0.10195   14.71084   15.13221    4.67607
     115      444        2     0.10195   10.68650   17.10599    6.35727
     116      444        2     0.10195   10.19990   19.22834    7.61027
     117      444        2     0.10195   12.10480   20.77945    8.12104
     118      444        2     0.10195   -2.09518   16.69084    5.37185
     119      444        2     0.10195   12.34192   15.60890    5.29538
     120      444        2     0.10195   15.97432   18.77281    6.63252
     121      444        2     0.10195   10.86072    9.01317    0.53626
     122      444        2     0.10195   10.85324    8.97839    5.49869
     123      444        2     0.10195   17.07084    4.93332    7.55928
     124      444        2     0.10195   17.07520    9.22715    5.06924
     125      444        2     0.10195    4.67339   13.00308    7.54740
     126      444        2     0.10195    4.67672    8.71159    5.05610
     127      444        2     0.10195    7.79178   17.93267   15.10277
     128      444        2     0.10195    7.79874   17.96679   10.13926
     129      444        2     0.10195    1.58161   22.01257    8.07991
     130      444        2     0.10195    1.57727   17.71865   10.56980
     131      444        2     0.10195   13.97868   13.94219    8.09070
     132      444        2     0.10195   13.97571   18.23419   10.58294
     133      444        2     0.10195    4.66226    6.48486    3.76400
     134      444        2     0.10195    4.65402    2.19322    1.26363
     135      444        2     0.10195   10.88209    8.96810    8.13136
     136      444        2     0.10195   10.84307    8.96676   13.09769
     137      444        2     0.10195   -1.54278   11.50874    3.75697
     138      444        2     0.10195   -1.49645   15.81872    1.28897
     139      444        2     0.10195   13.99013   20.46098   11.87503
     140      444        2     0.10195   13.99851   24.75265   14.37556
     141      444        2     0.10195    7.77032   17.97776    7.50783
     142      444        2     0.10195    7.80620   17.97456    2.53352
     143      444        2     0.10195   20.19526   15.43717   11.88207
     144      444        2     0.10195   20.14880   11.12719   14.35007
     145      444        3     0.66952    8.34570    9.11093    1.55217
     146      444        3    -0.11779    9.64337    9.08925    2.31176
     147      444        3    -0.07437    9.65321    9.11994    3.71427
     148      444        3     0.66952    5.40511    6.81714    1.18450
     149      444        3    -0.11779    5.02179    5.53131    1.86558
     150      444        3    -0.07437    5.04748    4.31228    1.17230
     151      444        3    -0.07437    5.14229   14.46188    4.29792
     152      444        3    -0.07437    2.16663   12.37316    3.47843
     153      444        3    -0.07437    1.89608   11.19727    2.81237
     154      444        3     0.18406    2.95833   10.50271    2.20729
     155      444        3    -0.07437    6.16272   13.67868    3.71021
     156      444        3    -0.11779    3.49444   12.84674    3.55475
     157      444        3    -0.07437    3.83031   14.04817    4.23302
     158      444        3     0.22907    4.53084   12.07071    2.93779
     159      444        3    -0.07437    5.87157   12.50292    3.04492
     160      444        3     0.66952   14.55923    5.75940    6.95077
     161      444        3    -0.11779   15.85825    6.42486    6.58841
     162      444        3    -0.07437   15.87064    7.61671    5.84869
     163      444        3     0.66952   11.62681    6.57714    9.14227
     164      444        3    -0.11779   11.23719    7.80900    9.91296
     165      444        3    -0.07437   11.25573    7.82407   11.31547
     166      444        3    -0.07437   11.30400    5.42221    0.95883
     167      444        3    -0.07437    8.35303    5.80857    3.20334
     168      444        3    -0.07437    8.09646    5.83594    4.55737
     169      444        3     0.18406    9.16645    5.65745    5.45208
     170      444        3    -0.07437   12.33250    5.30354    1.92235
     171      444        3    -0.11779    9.67504    5.62220    2.74231
     172      444        3    -0.07437    9.99748    5.59091    1.36060
     173      444        3     0.22907   10.71920    5.47350    3.71443
     174      444        3    -0.07437   12.05511    5.33373    3.27419
     175      444        3     0.66952    2.16125   12.07134    7.12702
     176      444        3    -0.11779    3.45972   11.42344    6.73135
     177      444        3    -0.07437    3.47186   10.19067    6.06185
     178      444        3     0.66952   -0.77408   13.56363    5.33197
     179      444        3    -0.11779   -1.15676   13.62462    3.87895
     180      444        3    -0.07437   -1.11233   14.83353    3.16909
     181      444        3    -0.07437   17.51670    7.06582   10.44375
     182      444        3    -0.07437   14.56023    8.81392    8.99557
     183      444        3    -0.07437   14.30125    9.96761    8.28713
     184      444        3     0.18406   15.37142   10.82719    7.98107
     185      444        3    -0.07437   18.54529    7.95271   10.04886
     186      444        3    -0.11779   15.88400    8.50758    9.38092
     187      444        3    -0.07437   16.20814    7.33130   10.10579
     188      444        3     0.22907   16.92821    9.41746    9.00762
     189      444        3    -0.07437   18.26585    9.10353    9.33948
     190      444        3     0.66952   13.37183    8.89721    1.55671
     191      444        3    -0.11779   12.07254    8.91137    2.31364
     192      444        3    -0.07437   12.05951    8.85925    3.71537
     193      444        3     0.66952   -2.29267   11.20122    1.18028
     194      444        3    -0.11779   -1.89898   12.48054    1.86683
     195      444        3    -0.07437   -1.91544   13.70524    1.18341
     196      444        3    -0.07437   16.61657    3.52348    4.23380
     197      444        3    -0.07437    0.96661    5.65904    3.45623
     198      444        3    -0.07437    1.22630    6.84783    2.80846
     199      444        3     0.18406    0.15777    7.53731    2.20839
     200      444        3    -0.07437   15.58961    4.30198    3.65093
     201      444        3    -0.11779   18.24850    5.16821    3.52254
     202      444        3    -0.07437   17.92361    3.95453    4.18250
     203      444        3     0.22907   17.20577    5.94008    2.91042
     204      444        3    -0.07437   15.86935    5.48942    3.00504
     205      444        3     0.66952    7.18746   12.17771    6.94889
     206      444        3    -0.11779    5.88965   11.51183    6.58216
     207      444        3    -0.07437    5.87922   10.31923    5.84353
     208      444        3     0.66952   10.12173   11.35772    9.13351
     209      444        3    -0.11779   10.50146   10.12548    9.90733
     210      444        3    -0.07437   10.45921   10.10996   11.30859
     211      444        3    -0.07437   10.43157   12.58100    0.95523
     212      444        3    -0.07437   13.38931   12.18306    3.18802
     213      444        3    -0.07437   13.64901   12.13618    4.54079
     214      444        3     0.18406   12.58003   12.29440    5.44035
     215      444        3    -0.07437    9.40352   12.67360    1.92219
     216      444        3    -0.11779   12.06545   12.36855    2.73245
     217      444        3    -0.07437   11.74021   12.41851    1.35121
     218      444        3     0.22907   11.02196   12.49210    3.70880
     219      444        3    -0.07437    9.68392   12.62530    3.27294
     220      444        3     0.66952   19.58540    5.86614    7.14235
     221      444        3    -0.11779   18.28730    6.51435    6.74637
     222      444        3    -0.07437   18.27667    7.74828    6.07905
     223      444        3     0.66952    3.91671    4.40713    5.32713
     224      444        3    -0.11779    4.29745    4.36297    3.87066
     225      444        3    -0.07437    4.26704    3.15967    3.15299
     226      444        3    -0.07437    4.20047   10.90111   10.42342
     227      444        3    -0.07437    7.17120    9.14480    9.01637
     228      444        3    -0.07437    7.43835    7.98180    8.32685
     229      444        3     0.18406    6.37357    7.11467    8.02455
     230      444        3    -0.07437    3.17771   10.00404   10.03682
     231      444        3    -0.11779    5.84387    9.45099    9.38921
     232      444        3    -0.07437    5.51149   10.63627   10.09531
     233      444        3     0.22907    4.80520    8.53162    9.02294
     234      444        3    -0.07437    3.46503    8.84402    9.34589
     235      444        3     0.66952   10.30679   17.83491   14.08686
     236      444        3    -0.11779    9.00909   17.85659   13.32727
     237      444        3    -0.07437    8.99924   17.82588   11.92477
     238      444        3     0.66952   13.24728   20.12869   14.45454
     239      444        3    -0.11779   13.63064   21.41451   13.77346
     240      444        3    -0.07437   13.60473   22.63317   14.46611
     241      444        3    -0.07437   13.51014   12.48392   11.34112
     242      444        3    -0.07437   16.48582   14.57262   12.16060
     243      444        3    -0.07437   16.75637   15.74849   12.82667
     244      444        3     0.18406   15.69377   16.44257   13.43080
     245      444        3    -0.07437   12.48971   13.26716   11.92883
     246      444        3    -0.11779   15.15775   14.09865   12.08366
     247      444        3    -0.07437   14.82211   12.89763   11.40602
     248      444        3     0.22907   14.12131   14.87468   12.70046
     249      444        3    -0.07437   12.78031   14.44207   12.59271
     250      444        3     0.66952    4.09285   21.18599    8.68749
     251      444        3    -0.11779    2.79421   20.52105    9.05078
     252      444        3    -0.07437    2.78180   19.32911    9.79035
     253      444        3     0.66952    7.02563   20.36873    6.49693
     254      444        3    -0.11779    7.41526   19.13687    5.72623
     255      444        3    -0.07437    7.39670   19.12180    4.32372
     256      444        3    -0.07437    7.34844   21.52364   14.68036
     257      444        3    -0.07437   10.29942   21.13728   12.43585
     258      444        3    -0.07437   10.55601   21.10995   11.08182
     259      444        3     0.18406    9.48602   21.28844   10.18711
     260      444        3    -0.07437    6.31989   21.64220   13.71669
     261      444        3    -0.11779    8.97742   21.32369   12.89689
     262      444        3    -0.07437    8.65497   21.35492   14.27860
     263      444        3     0.22907    7.93319   21.47226   11.92461
     264      444        3    -0.07437    6.59730   21.61205   12.36485
     265      444        3     0.66952   16.49121   14.87448    8.51202
     266      444        3    -0.11779   15.19271   15.52237    8.90768
     267      444        3    -0.07437   15.18058   16.75513    9.57719
     268      444        3     0.66952   19.42650   13.38228   10.30706
     269      444        3    -0.11779   19.80877   13.32066   11.75899
     270      444        3    -0.07437   19.76473   12.11240   12.46994
     271      444        3    -0.07437    1.13572   19.88004    5.19529
     272      444        3    -0.07437    4.09219   18.13195    6.64346
     273      444        3    -0.07437    4.35089   16.97781    7.35113
     274      444        3     0.18406    3.28104   16.11867    7.65797
     275      444        3    -0.07437    0.10714   18.99314    5.59017
     276      444        3    -0.11779    2.76808   18.43776    6.25718
     277      444        3    -0.07437    2.44424   19.61455    5.53325
     278      444        3     0.22907    1.72402   17.52812    6.63095
     279      444        3    -0.07437    0.38660   17.84231    6.29956
     280      444        3     0.66952    5.28062   18.04862   14.08233
     281      444        3    -0.11779    6.57998   18.03454   13.32555
     282      444        3    -0.07437    6.59293   18.08657   11.92367
     283      444        3     0.66952   20.94512   15.74467   14.45876
     284      444        3    -0.11779   20.55142   14.46537   13.77221
     285      444        3    -0.07437   20.56782   13.24067   14.45563
     286      444        3    -0.07437    2.03583   23.42237   11.40524
     287      444        3    -0.07437   17.68525   21.28596   12.18140
     288      444        3    -0.07437   17.42616   20.09797   12.83058
     289      444        3     0.18406   18.49474   19.40859   13.43080
     290      444        3    -0.07437    3.06279   22.64389   11.98810
     291      444        3    -0.11779    0.40356   21.77708   12.11556
     292      444        3    -0.07437    0.72881   22.99129   11.45653
     293      444        3     0.22907    1.44665   21.00578   12.72861
     294      444        3    -0.07437    2.78309   21.45643   12.63400
     295      444        3     0.66952   11.46502   14.76814    8.69030
     296      444        3    -0.11779   12.76284   15.43404    9.05704
     297      444        3    -0.07437   12.77321   16.62655    9.79551
     298      444        3     0.66952    8.53054   15.58802    6.50553
     299      444        3    -0.11779    8.15027   16.81939    5.73014
     300      444        3    -0.07437    8.19282   16.83536    4.32967
     301      444        3    -0.07437    8.22091   14.36491   14.68396
     302      444        3    -0.07437    5.26309   14.76270   12.45102
     303      444        3    -0.07437    5.00338   14.80960   11.09824
     304      444        3     0.18406    6.07242   14.65146   10.19884
     305      444        3    -0.07437    9.24833   14.27141   13.71544
     306      444        3    -0.11779    6.58693   14.57725   12.90658
     307      444        3    -0.07437    6.91193   14.52691   14.28720
     308      444        3     0.22907    7.63043   14.45368   11.93024
     309      444        3    -0.07437    8.96847   14.32052   12.36610
     310      444        3     0.66952   -0.93296   21.07962    8.49669
     311      444        3    -0.11779    0.36519   20.43152    8.89283
     312      444        3    -0.07437    0.37399   19.19492    9.55545
     313      444        3     0.66952   14.73570   22.53871   10.31191
     314      444        3    -0.11779   14.35449   22.58213   11.76712
     315      444        3    -0.07437   14.38538   23.78613   12.48605
     316      444        3    -0.07437   14.45198   16.04476    5.21578
     317      444        3    -0.07437   11.48119   17.80099    6.62266
     318      444        3    -0.07437   11.21411   18.96406    7.31234
     319      444        3     0.18406   12.27328   19.82316    7.60057
     320      444        3    -0.07437   15.47468   16.94174    5.60222
     321      444        3    -0.11779   12.80853   17.49477    6.24983
     322      444        3    -0.07437   13.14088   16.30950    5.54373
     323      444        3     0.22907   13.84721   18.41416    6.61609
     324      444        3    -0.07437   15.18739   18.10178    6.29315
     325      444        3    -0.07437   10.85366    8.99691    1.61082
     326      444        3    -0.07437   10.85566    8.98621    4.41005
     327      444        3    -0.07437   17.07233    5.87315    7.01301
     328      444        3    -0.07437   17.07412    8.28413    5.61567
     329      444        3    -0.07437    4.67428   12.06364    7.00269
     330      444        3    -0.07437    4.67599    9.65387    5.60362
     331      444        3    -0.07437    7.79390   17.94185   14.01586
     332      444        3    -0.07437    7.79676   17.95959   11.22898
     333      444        3    -0.07437    1.58015   21.07274    8.62618
     334      444        3    -0.07437    1.57841   18.66174   10.02353
     335      444        3    -0.07437   13.97815   14.88217    8.63635
     336      444        3    -0.07437   13.97645   17.29193   10.03541
     337      444        3    -0.07437    4.66054    5.54469    3.21648
     338      444        3    -0.07437    4.65634    3.13528    1.81272
     339      444        3    -0.07437   10.87404    8.96736    9.21937
     340      444        3    -0.07437   10.85248    8.96732   12.00750
     341      444        3    -0.07437   -1.53307   12.45267    3.21601
     342      444        3    -0.07437   -1.50764   14.87265    1.83102
     343      444        3    -0.07437   13.99187   21.40113   12.42256
     344      444        3    -0.07437   13.99612   23.81052   13.82632
     345      444        3    -0.07437    7.77837   17.97850    6.41982
     346      444        3    -0.07437    7.80000   17.97855    3.63170
     347      444        3    -0.07437   20.18551   14.49325   12.42303
     348      444        3    -0.07437   20.16005   12.07326   13.80802
     349      444        4    -0.35202    4.22859   10.91201    2.25359
     350      444        4    -0.35202   10.43097    5.47726    5.06298
     351      444        4    -0.35202   16.63767   10.58005    8.32513
     352      444        4    -0.35202   -1.10727    7.11143    2.24342
     353      444        4    -0.35202   11.31355   12.47300    5.05610
     354      444        4    -0.35202    5.10388    7.36173    8.35625
     355      444        4    -0.35202   14.42385   16.03377   13.38545
     356      444        4    -0.35202    8.22150   21.46867   10.57621
     357      444        4    -0.35202    2.01478   16.36582    7.31391
     358      444        4    -0.35202   19.75942   19.83396   13.39484
     359      444        4    -0.35202    7.33870   14.47260   10.58262
     360      444        4    -0.35202   13.54854   19.58403    7.28279
     361      444        5    -0.58885    7.33650    9.65089    2.11909
     362      444        5    -0.58885    5.06404    7.89325    1.77081
     363      444        5    -0.58885    8.34464    8.56759    0.40020
     364      444        5    -0.58885    6.01548    6.66179    0.00000
     365      444        5    -0.58885   13.54932    5.98159    6.20025
     366      444        5    -0.58885   11.28575    6.54544    7.91726
     367      444        5    -0.58885   14.55808    5.03724    7.99984
     368      444        5    -0.58885   12.31150    5.58240    9.77831
     369      444        5    -0.58885    1.14878   11.31186    7.30280
     370      444        5    -0.58885   17.48382   12.51598    5.96504
     371      444        5    -0.58885    2.16294   13.34011    7.23775
     372      444        5    -0.58885   -0.12251   14.55628    5.79458
     373      444        5    -0.58885   14.38150    8.35462    2.12144
     374      444        5    -0.58885   -1.95576   10.12103    1.76127