Created on Tue Feb 06 14:51:54 2018 

        3648 atoms
        4096 bonds
        7168 angles
        7424 dihedrals
        4992 impropers

           7 atom types
          10 bond types
          18 angle types
           3 dihedral types
           1 improper types
           0.000000  47.660000 xlo xhi
           0.000000  47.286900 ylo yhi
           0.000000  26.201485 zlo zhi
          -5.967855 -10.393187 -11.753955 xy xz yz

Masses

    1   112.411000000 # Cd3+2
    2     1.007940000 # H_
    3    12.010700000 # C_R
    4    79.904000000 # Br
    5    14.006700000 # N_R
    6    15.999400000 # O_R
    7    15.999400000 # O_3_z

Bond Coeffs

    1      147.192711        2.045725  # Cd3+2 O_R
    2      152.700732        2.089900  # Cd3+2 N_R
    3      184.083565        1.898765  # Cd3+2 O_3_z
    4      850.878848        0.861362  # H_ O_3_z
    5      357.440381        1.081418  # H_ C_R
    6      663.718927        1.345073  # C_R N_R
    7      462.655054        1.379256  # C_R C_R
    8      391.669513        1.458000  # C_R C_R
    9      231.033365        1.905838  # C_R Br
   10      646.680887        1.311940  # C_R O_R

Angle Coeffs

    1                      fourier       31.469575        0.343737        0.374972        0.281246 # O_R Cd3+2 N_R
    2                      fourier       30.023701        0.343737        0.374972        0.281246 # O_R Cd3+2 O_R
    3                      fourier       36.005565        0.343737        0.374972        0.281246 # O_R Cd3+2 O_3_z
    4                      fourier       37.638421        0.343737        0.374972        0.281246 # N_R Cd3+2 O_3_z
    5              cosine/periodic      109.704024              -1               3 # N_R C_R H_
    6              cosine/periodic       76.817955              -1               3 # H_ C_R C_R
    7              cosine/periodic      165.695700              -1               3 # N_R C_R C_R
    8              cosine/periodic      101.626578              -1               3 # C_R C_R C_R
    9              cosine/periodic      117.010657              -1               3 # C_R C_R C_R
   10              cosine/periodic       63.886311              -1               3 # Br C_R C_R
   11              cosine/periodic      217.450257              -1               3 # O_R C_R O_R
   12              cosine/periodic      137.761490              -1               3 # C_R C_R O_R
   13              cosine/periodic       33.294741              -1               3 # C_R N_R Cd3+2
   14              cosine/periodic      132.654363              -1               3 # C_R N_R C_R
   15              cosine/periodic       45.673393              -1               3 # Cd3+2 O_R C_R
   16                      fourier      110.159549        1.898490        2.651251        0.799497 # H_ O_3_z H_
   17                      fourier       11.365859        1.898490        2.651251        0.799497 # Cd3+2 O_3_z Cd3+2
   18                      fourier       26.614840        1.898490        2.651251        0.799497 # Cd3+2 O_3_z H_

Dihedral Coeffs

    1        1.497136              -1               2 # H_ C_R N_R C_R
    2        0.555556              -1               2 # C_R C_R C_R O_R
    3        2.245703              -1               2 # O_R C_R O_R Cd3+2

Improper Coeffs

    1        2.000000        1.000000       -1.000000        0.000000               0 # N_R C_R H_ C_R

Pair Coeffs

    1        0.228000        2.537280 # Cd3+2 Cd3+2
    2        0.044000        2.571134 # H_ H_
    3        0.105000        3.430851 # C_R C_R
    4        0.251000        3.731975 # Br Br
    5        0.069000        3.260689 # N_R N_R
    6        0.060000        3.118146 # O_R O_R
    7        0.060000        3.118146 # O_3_z O_3_z

Atoms

       1      444        1     1.02701    5.22056   -4.35224   10.24609
       2      444        1     1.02701    3.72776    7.47144   10.24701
       3      444        1     1.02701   17.13249   -4.35189   10.24635
       4      444        1     1.02701   15.63992    7.46956   10.24465
       5      444        1     1.02701    7.61706   -1.63720    9.40699
       6      444        1     1.02701    6.12798   10.18157    9.40751
       7      444        1     1.02701   19.53030   -1.63539    9.40581
       8      444        1     1.02701   18.03880   10.18199    9.40594
       9      444        1     1.02701    0.00874   10.29652    2.85596
      10      444        1     1.02701   -1.48400   22.11780    2.85452
      11      444        1     1.02701   11.92076   10.29439    2.85387
      12      444        1     1.02701   10.42796   22.11816    2.85478
      13      444        1     1.02701   -2.39024    7.58397    3.69493
      14      444        1     1.02701   -3.88181   19.40131    3.69506
      15      444        1     1.02701    9.52047    7.58432    3.69336
      16      444        1     1.02701    8.03140   19.40312    3.69389
      17      444        2     0.42243    4.93376   -1.68910   10.68942
      18      444        2     0.42243    3.44235   10.13384   10.69034
      19      444        2     0.42243   16.84502   -1.68835   10.68759
      20      444        2     0.42243   15.35269   10.13231   10.68811
      21      444        2     0.08994    1.27992    0.20616    0.21354
      22      444        2     0.08994   -0.21462   12.02745    0.21577
      23      444        2     0.08994   13.19298    0.20598    0.21577
      24      444        2     0.08994   11.70160   12.02797    0.21472
      25      444        2     0.08994    1.20821    4.43757    1.05330
      26      444        2     0.08994   -0.28552   16.25943    1.05422
      27      444        2     0.08994   13.12583    4.43777    1.05461
      28      444        2     0.08994   11.63595   16.25945    1.05618
      29      444        2     0.08994    1.41635    1.43984    4.17809
      30      444        2     0.08994   -0.07645   13.26205    4.17927
      31      444        2     0.08994   13.32814    1.43980    4.17966
      32      444        2     0.08994   11.83602   13.25935    4.17940
      33      444        2     0.08994    9.51542    5.81106    1.02422
      34      444        2     0.08994    8.02300   17.62979    1.02422
      35      444        2     0.08994   21.42980    5.81188    1.02356
      36      444        2     0.08994   19.93710   17.63011    1.02264
      37      444        2     0.08994    9.63730    1.57417    1.79716
      38      444        2     0.08994    8.14524   13.39309    1.79873
      39      444        2     0.08994   21.54803    1.57452    1.79506
      40      444        2     0.08994   20.05517   13.39283    1.79467
      41      444        2     0.08994   -2.31449    4.52754    4.97160
      42      444        2     0.08994   -3.80629   16.34631    4.97081
      43      444        2     0.08994    9.59609    4.52806    4.97291
      44      444        2     0.08994    8.10666   16.34831    4.97330
      45      444        2     0.42243    4.93861   -1.68265    8.96444
      46      444        2     0.42243    3.44904   10.14404    8.96549
      47      444        2     0.42243   16.85153   -1.68250    8.96353
      48      444        2     0.42243   15.35973   10.14063    8.96366
      49      444        2     0.08994    7.77841    7.59067    6.33591
      50      444        2     0.08994    6.28727   19.41158    6.33552
      51      444        2     0.08994   19.69462    7.59115    6.33368
      52      444        2     0.08994   18.20289   19.41020    6.33513
      53      444        2     0.08994    3.57066    7.12859    5.49969
      54      444        2     0.08994    2.07967   18.94968    5.49825
      55      444        2     0.08994   15.48725    7.12560    5.49812
      56      444        2     0.08994   13.99489   18.94978    5.49930
      57      444        2     0.08994    6.56986    7.29142    2.37333
      58      444        2     0.08994    5.07976   19.11245    2.37294
      59      444        2     0.08994   18.48559    7.29092    2.37123
      60      444        2     0.08994   16.99382   19.10981    2.37254
      61      444        2     0.08994    3.25394   -1.28817    5.52720
      62      444        2     0.08994    1.76334   10.53584    5.52747
      63      444        2     0.08994   15.16778   -1.28839    5.52589
      64      444        2     0.08994   13.67634   10.53112    5.52550
      65      444        2     0.08994    7.47271   -0.87165    4.75740
      66      444        2     0.08994    5.98216   10.94816    4.75544
      67      444        2     0.08994   19.38638   -0.87137    4.75583
      68      444        2     0.08994   17.89495   10.94679    4.75439
      69      444        2     0.08994    3.04879   10.60311    1.57916
      70      444        2     0.08994    1.55737   22.42340    1.57969
      71      444        2     0.08994   14.96231   10.60072    1.57759
      72      444        2     0.08994   13.47097   22.42246    1.57825
      73      444        2     0.42243    0.29593    7.63365    2.41276
      74      444        2     0.42243   -1.19651   19.45424    2.41329
      75      444        2     0.42243   12.20594    7.63196    2.41054
      76      444        2     0.42243   10.71495   19.45538    2.41054
      77      444        2     0.08994    3.94682    5.73789   12.88628
      78      444        2     0.08994    2.45556   17.55993   12.88510
      79      444        2     0.08994   15.86322    5.73854   12.88510
      80      444        2     0.08994   14.36894   17.56015   12.88641
      81      444        2     0.08994    4.01247    1.50645   12.04469
      82      444        2     0.08994    2.52264   13.32813   12.04626
      83      444        2     0.08994   15.93433    1.50682   12.04613
      84      444        2     0.08994   14.44036   13.32830   12.04757
      85      444        2     0.08994    3.81246    4.50651    8.92161
      86      444        2     0.08994    2.32042   16.32614    8.92121
      87      444        2     0.08994   15.72498    4.50389    8.92161
      88      444        2     0.08994   14.23217   16.32605    8.92278
      89      444        2     0.08994   -4.28853    0.13579   12.07836
      90      444        2     0.08994   -5.78122   11.95404   12.07731
      91      444        2     0.08994    7.62549    0.13615   12.07666
      92      444        2     0.08994    6.13291   11.95478   12.07666
      93      444        2     0.08994   -4.40657    4.37309   11.30620
      94      444        2     0.08994   -5.89953   16.19138   11.30594
      95      444        2     0.08994    7.50328    4.37281   11.30214
      96      444        2     0.08994    6.01122   16.19172   11.30371
      97      444        2     0.08994    7.54183    1.41758    8.12757
      98      444        2     0.08994    6.05245   13.23785    8.12796
      99      444        2     0.08994   19.45478    1.41959    8.13006
     100      444        2     0.08994   17.96301   13.23850    8.12927
     101      444        2     0.42243    0.28882    7.62519    4.13721
     102      444        2     0.42243   -1.20304   19.44844    4.13735
     103      444        2     0.42243   12.19968    7.62211    4.13459
     104      444        2     0.42243   10.70985   19.44859    4.13643
     105      444        2     0.08994   -2.55445   -1.64428    6.76575
     106      444        2     0.08994   -4.04609   10.17484    6.76719
     107      444        2     0.08994    9.36146   -1.64538    6.76483
     108      444        2     0.08994    7.87006   10.17509    6.76509
     109      444        2     0.08994    1.65354   -1.18384    7.60157
     110      444        2     0.08994    0.16129   10.64027    7.60275
     111      444        2     0.08994   13.56886   -1.18369    7.60262
     112      444        2     0.08994   12.07779   10.63715    7.60131
     113      444        2     0.08994   -1.34527   -1.34377   10.72807
     114      444        2     0.08994   -2.83705   10.47498   10.72964
     115      444        2     0.08994   10.56875   -1.34653   10.72794
     116      444        2     0.08994    9.07866   10.47457   10.72754
     117      444        2     0.08994    1.97220    7.23469    7.57524
     118      444        2     0.08994    0.48072   19.05434    7.57485
     119      444        2     0.08994   13.88522    7.23012    7.57341
     120      444        2     0.08994   12.39456   19.05419    7.57367
     121      444        2     0.08994   -2.24646    6.81913    8.34648
     122      444        2     0.08994   -3.73793   18.63730    8.34517
     123      444        2     0.08994    9.66647    6.81775    8.34517
     124      444        2     0.08994    8.17579   18.63769    8.34347
     125      444        2     0.08994    2.17764   -4.65651   11.52250
     126      444        2     0.08994    0.68624    7.16510   11.52328
     127      444        2     0.08994   14.09111   -4.65743   11.52119
     128      444        2     0.08994   12.59972    7.16280   11.52171
     129      444        3     0.15853    1.30194    1.04203    0.91076
     130      444        3     0.15853   -0.19226   12.86382    0.91194
     131      444        3     0.15853   13.21594    1.04236    0.91181
     132      444        3     0.15853   11.72447   12.86380    0.91155
     133      444        3    -0.18710    1.23514    2.35874    0.44726
     134      444        3    -0.18710   -0.25907   14.18054    0.44857
     135      444        3    -0.18710   13.15119    2.35898    0.44857
     136      444        3    -0.18710   11.66110   14.18105    0.44896
     137      444        3     0.00124    1.25931    3.39971    1.38200
     138      444        3     0.00124   -0.23452   15.22159    1.38318
     139      444        3     0.00124   13.17555    3.39982    1.38344
     140      444        3     0.00124   11.68510   15.22124    1.38449
     141      444        3    -0.00906    1.31102    3.06892    2.73661
     142      444        3    -0.00906   -0.18227   14.89089    2.73779
     143      444        3    -0.00906   13.22552    3.06903    2.73806
     144      444        3    -0.00906   11.73405   14.88939    2.73897
     145      444        3     0.15853    1.38171    1.73223    3.12859
     146      444        3     0.15853   -0.10707   13.55950    3.11798
     147      444        3     0.15853   13.29451    1.73228    3.13016
     148      444        3     0.15853   11.80257   13.55239    3.13003
     149      444        3     0.66916   -4.14477   -3.26322   12.06736
     150      444        3     0.66916   -5.63886    8.55934   12.06840
     151      444        3     0.66916    7.77388   -3.26279   12.06840
     152      444        3     0.66916    6.28533    8.56119   12.06906
     153      444        3     0.15853    9.53545    4.96733    1.71017
     154      444        3     0.15853    8.04337   16.78619    1.71043
     155      444        3     0.15853   21.44959    4.96781    1.70899
     156      444        3     0.15853   19.95749   16.78658    1.70703
     157      444        3    -0.18710    9.56702    3.65695    1.22557
     158      444        3    -0.18710    8.07428   15.47555    1.22636
     159      444        3    -0.18710   21.47859    3.65749    1.22400
     160      444        3    -0.18710   19.98563   15.47563    1.22335
     161      444        3     0.00124    9.60196    2.60501    2.14590
     162      444        3     0.00124    8.10987   14.42376    2.14774
     163      444        3     0.00124   21.51420    2.60501    2.14472
     164      444        3     0.00124   20.02140   14.42338    2.14420
     165      444        3    -0.00906    9.60565    2.91990    3.50314
     166      444        3    -0.00906    8.11472   14.73937    3.50432
     167      444        3    -0.00906   21.52086    2.91977    3.50144
     168      444        3    -0.00906   20.02836   14.73823    3.50091
     169      444        3     0.15853   21.49131    4.25090    3.91751
     170      444        3     0.15853   19.99912   16.06946    3.91673
     171      444        3     0.15853    9.57361    4.25112    3.91883
     172      444        3     0.15853    8.08363   16.07123    3.91843
     173      444        3     0.66916    4.42645   -2.45963   12.82563
     174      444        3     0.66916    2.93060    9.35515   12.83309
     175      444        3     0.66916   16.33182   -2.46198   12.83034
     176      444        3     0.66916   14.83882    9.35557   12.82969
     177      444        3     0.15853    6.95136    7.46230    5.63987
     178      444        3     0.15853    5.46016   19.28297    5.64000
     179      444        3     0.15853   18.86754    7.46180    5.63804
     180      444        3     0.15853   17.37603   19.28196    5.63856
     181      444        3    -0.18710    5.63666    7.36404    6.10429
     182      444        3    -0.18710    4.14540   19.18532    6.10350
     183      444        3    -0.18710   17.55316    7.36290    6.10246
     184      444        3    -0.18710   16.06106   19.18471    6.10390
     185      444        3     0.00124    4.60666    7.20742    5.17021
     186      444        3     0.00124    3.11573   19.02851    5.16916
     187      444        3     0.00124   16.52314    7.20545    5.16850
     188      444        3     0.00124   15.03094   19.02801    5.16995
     189      444        3    -0.00906    4.94085    7.19458    3.81559
     190      444        3    -0.00906    3.45038   19.01571    3.81454
     191      444        3    -0.00906   16.85718    7.19304    3.81376
     192      444        3    -0.00906   15.36506   19.01464    3.81520
     193      444        3     0.15853    6.27563    7.29134    3.42296
     194      444        3     0.15853    4.78538   19.11238    3.42244
     195      444        3     0.15853   18.19185    7.29070    3.42087
     196      444        3     0.15853   16.69993   19.11025    3.42244
     197      444        3     0.66916    5.36124    7.51688    7.58402
     198      444        3     0.66916    3.86850   19.33778    7.58376
     199      444        3     0.66916   17.27791    7.51537    7.58323
     200      444        3     0.66916   15.78566   19.33799    7.58454
     201      444        3     0.15853    4.09424   -1.20281    4.84217
     202      444        3     0.15853    2.60345   10.62022    4.84190
     203      444        3     0.15853   16.00794   -1.20313    4.84072
     204      444        3     0.15853   14.51634   10.61633    4.84007
     205      444        3    -0.18710    5.39747   -1.06465    5.32755
     206      444        3    -0.18710    3.90700   10.75723    5.32663
     207      444        3    -0.18710   17.31132   -1.06425    5.32545
     208      444        3    -0.18710   15.81970   10.75415    5.32506
     209      444        3     0.00124    6.44647   -0.96913    4.40722
     210      444        3     0.00124    4.95563   10.85189    4.40578
     211      444        3     0.00124   18.36011   -0.96922    4.40578
     212      444        3     0.00124   16.86852   10.84980    4.40460
     213      444        3    -0.00906    6.13607   -1.01864    3.05038
     214      444        3    -0.00906    4.64442   10.80337    3.04907
     215      444        3    -0.00906   18.04958   -1.01924    3.04894
     216      444        3    -0.00906   16.55751   10.80104    3.04789
     217      444        3     0.15853    3.32013   10.66443    2.63325
     218      444        3     0.15853    4.81498   -1.18151    2.63377
     219      444        3     0.15853   15.23337   10.66173    2.63168
     220      444        3     0.15853   16.72831   -1.18092    2.63246
     221      444        3     0.66916    5.64416   -1.08001    6.82221
     222      444        3     0.66916    4.15471   10.74081    6.82116
     223      444        3     0.66916   17.55721   -1.07939    6.82025
     224      444        3     0.66916   16.06636   10.73838    6.81894
     225      444        3     0.15853    3.92402    4.90211   12.18932
     226      444        3     0.15853    2.43270   16.72367   12.18880
     227      444        3     0.15853   15.84089    4.90215   12.18893
     228      444        3     0.15853   14.34653   16.72386   12.19011
     229      444        3    -0.18710    3.98732    3.58487   12.65191
     230      444        3    -0.18710    2.49726   15.40691   12.65230
     231      444        3    -0.18710   15.90766    3.58547   12.65230
     232      444        3    -0.18710   14.41345   15.40713   12.65361
     233      444        3     0.00124    3.96334    2.54460   11.71652
     234      444        3     0.00124    2.47294   14.36610   11.71743
     235      444        3     0.00124   15.88309    2.54442   11.71770
     236      444        3     0.00124   14.38921   14.36619   11.71888
     237      444        3    -0.00906    3.91439    2.87644   10.36203
     238      444        3    -0.00906    2.42299   14.69689   10.36282
     239      444        3    -0.00906   15.83082    2.87507   10.36308
     240      444        3    -0.00906   14.33755   14.69704   10.36413
     241      444        3     0.15853    3.84584    4.21345    9.97098
     242      444        3     0.15853    2.35402   16.03363    9.97071
     243      444        3     0.15853   15.76030    4.21176    9.97111
     244      444        3     0.15853   14.26681   16.03366    9.97229
     245      444        3     0.66916    9.36315    9.20475    1.03181
     246      444        3     0.66916    7.87457   21.02864    1.03247
     247      444        3     0.66916   21.28773    9.20693    1.03195
     248      444        3     0.66916   19.79328   21.02909    1.03352
     249      444        3     0.15853   -4.30846    0.97983   11.39280
     250      444        3     0.15853   -5.80099   12.79813   11.39188
     251      444        3     0.15853    7.60513    0.97967   11.39057
     252      444        3     0.15853    6.11292   12.79854   11.39070
     253      444        3    -0.18710   -4.33701    2.29034   11.87753
     254      444        3    -0.18710   -5.83007   14.10843   11.87687
     255      444        3    -0.18710    7.57409    2.29037   11.87451
     256      444        3    -0.18710    6.08143   14.10892   11.87530
     257      444        3     0.00124   -4.37282    3.34256   10.95667
     258      444        3     0.00124   -5.86565   15.16089   10.95628
     259      444        3     0.00124    7.53862    3.34214   10.95314
     260      444        3     0.00124    6.04669   15.16112   10.95445
     261      444        3    -0.00906   -4.37980    3.02769    9.59996
     262      444        3    -0.00906   -5.87229   14.84622    9.59944
     263      444        3    -0.00906    7.53377    3.02652    9.59656
     264      444        3    -0.00906    6.04284   14.84602    9.59773
     265      444        3     0.15853    7.56523    1.69508    9.18152
     266      444        3     0.15853    6.07488   13.51477    9.18205
     267      444        3     0.15853   -4.37708    1.69643    9.18414
     268      444        3     0.15853   -5.86830   13.51508    9.18336
     269      444        3     0.66916    0.80985    8.41042    0.27119
     270      444        3     0.66916   -0.68323   20.22787    0.27053
     271      444        3     0.66916   12.71785    8.41074    0.26778
     272      444        3     0.66916   11.22450   20.22835    0.26883
     273      444        3     0.15853   -1.72718   -1.51553    7.46127
     274      444        3     0.15853   -3.21900   10.30410    7.46284
     275      444        3     0.15853   10.18837   -1.51698    7.46087
     276      444        3     0.15853    8.69732   10.30375    7.46061
     277      444        3    -0.18710   -0.41262   -1.41880    6.99698
     278      444        3    -0.18710   -1.90465   10.40304    6.99842
     279      444        3    -0.18710   11.50316   -1.41938    6.99737
     280      444        3    -0.18710   10.01185   10.40171    6.99658
     281      444        3     0.00124    0.61753   -1.26210    7.93093
     282      444        3     0.00124   -0.87416   10.56102    7.93119
     283      444        3     0.00124   12.53274   -1.26256    7.93184
     284      444        3     0.00124   11.04183   10.55845    7.93067
     285      444        3    -0.00906    0.28338   -1.24872    9.28568
     286      444        3    -0.00906   -1.20864   10.57281    9.28712
     287      444        3    -0.00906   12.19812   -1.24975    9.28633
     288      444        3    -0.00906   10.70762   10.57128    9.28541
     289      444        3     0.15853   -1.05149   -1.34434    9.67844
     290      444        3     0.15853   -2.54332   10.47522    9.68001
     291      444        3     0.15853   10.86314   -1.34649    9.67844
     292      444        3     0.15853    9.37304   10.47475    9.67752
     293      444        3     0.66916   -0.13727   -1.57205    5.51633
     294      444        3     0.66916   -1.62903   10.25094    5.51672
     295      444        3     0.66916   11.78010   -1.57177    5.51712
     296      444        3     0.66916   10.28756   10.24924    5.51607
     297      444        3     0.15853    1.13214    7.14946    8.26080
     298      444        3     0.15853   -0.35947   18.96905    8.26015
     299      444        3     0.15853   13.04511    7.14568    8.25897
     300      444        3     0.15853   11.55420   18.96883    8.25884
     301      444        3    -0.18710   -0.17122    7.01169    7.77581
     302      444        3    -0.18710   -1.66266   18.83045    7.77490
     303      444        3    -0.18710   11.74155    7.00876    7.77424
     304      444        3    -0.18710   10.25104   18.83059    7.77333
     305      444        3     0.00124   -1.22001    6.91612    8.69627
     306      444        3     0.00124   -2.71163   18.73518    8.69509
     307      444        3     0.00124   10.69292    6.91393    8.69509
     308      444        3     0.00124    9.20203   18.73512    8.69365
     309      444        3    -0.00906   -0.90899    6.96483   10.05299
     310      444        3    -0.00906   -2.40105   18.78519   10.05194
     311      444        3    -0.00906   11.00446    6.96291   10.05089
     312      444        3    -0.00906    9.51244   18.78463   10.05050
     313      444        3     0.15853   -1.07702   18.92504   10.46841
     314      444        3     0.15853    0.41518    7.10412   10.46920
     315      444        3     0.15853   10.83643   18.92428   10.46710
     316      444        3     0.15853   12.32841    7.10149   10.46762
     317      444        3     0.66916   -0.41756    7.02783    6.28102
     318      444        3     0.66916   -1.90861   18.84557    6.28010
     319      444        3     0.66916   11.49386    7.02504    6.27971
     320      444        3     0.66916   10.00438   18.84607    6.27866
     321      444        4    -0.03676    1.24561    4.43447    4.07053
     322      444        4    -0.03676   -0.24662   16.25678    4.07132
     323      444        4    -0.03676   13.15966    4.43469    4.07171
     324      444        4    -0.03676   11.66866   16.25461    4.07315
     325      444        4    -0.03676   -2.21713    1.53151    4.81767
     326      444        4    -0.03676   -3.70962   13.34993    4.81701
     327      444        4    -0.03676    9.69606    1.53200    4.81989
     328      444        4    -0.03676    8.20583   13.35186    4.82120
     329      444        4    -0.03676    3.57750    7.08495    2.48246
     330      444        4    -0.03676    2.08728   18.90601    2.48115
     331      444        4    -0.03676   15.49372    7.08263    2.48063
     332      444        4    -0.03676   14.00152   18.90501    2.48207
     333      444        4    -0.03676    6.03343   10.88594    1.73310
     334      444        4    -0.03676    4.54193   22.70674    1.73532
     335      444        4    -0.03676   17.94668   10.88406    1.73192
     336      444        4    -0.03676   16.45526   22.70598    1.73349
     337      444        4    -0.03676    3.97986    1.51128    9.02772
     338      444        4    -0.03676    2.48882   13.33122    9.02916
     339      444        4    -0.03676   15.89510    1.50916    9.02956
     340      444        4    -0.03676   14.40288   13.33143    9.03034
     341      444        4    -0.03676    7.44267    4.41405    8.27954
     342      444        4    -0.03676    5.95250   16.23395    8.28098
     343      444        4    -0.03676   19.35814    4.41594    8.28386
     344      444        4    -0.03676   17.86604   16.23497    8.28229
     345      444        4    -0.03676    1.64690   -1.13911   10.61881
     346      444        4    -0.03676    0.15480   10.68326   10.62025
     347      444        4    -0.03676   13.56133   -1.13995   10.61946
     348      444        4    -0.03676   12.07098   10.68096   10.61854
     349      444        4    -0.03676   -0.80666   -4.94001   11.36738
     350      444        4    -0.03676   -2.29812    6.88186   11.36896
     351      444        4    -0.03676   11.10655   -4.94082   11.36555
     352      444        4    -0.03676    9.61514    6.87999   11.36765
     353      444        5    -0.34362    1.39294    0.73862    2.21782
     354      444        5    -0.34362   -0.10034   12.56105    2.21796
     355      444        5    -0.34362   13.30503    0.73868    2.21940
     356      444        5    -0.34362   11.81308   12.55929    2.21861
     357      444        5    -0.34362    9.53400    5.25819    3.02457
     358      444        5    -0.34362    8.04297   17.07752    3.02470
     359      444        5    -0.34362   21.45094    5.25829    3.02352
     360      444        5    -0.34362   19.95847   17.07665    3.02273
     361      444        5    -0.34362    7.26293    7.40733    4.33320
     362      444        5    -0.34362    5.77252   19.22806    4.33294
     363      444        5    -0.34362   19.17934    7.40742    4.33084
     364      444        5    -0.34362   17.68755   19.22588    4.33242