Created on Tue Feb 06 14:29:57 2018 

        1344 atoms
        1552 bonds
        2688 angles
        3536 dihedrals
        2208 impropers

           7 atom types
          10 bond types
          15 angle types
           5 dihedral types
           1 improper types
           0.000000  44.444000 xlo xhi
           0.000000  32.336000 ylo yhi
           0.000000  31.837741 zlo zhi
           0.000564  -0.631328   0.001123 xy xz yz

Masses

    1    65.380000000 # Zn4+2
    2     1.007940000 # H_
    3    12.010700000 # C_R
    4    79.904000000 # Br
    5    14.006700000 # N_R
    6    14.006700000 # N_2
    7    15.999400000 # O_2

Bond Coeffs

    1      101.478011        2.216443  # Zn4+2 N_R
    2      104.409475        2.122938  # Zn4+2 O_2
    3      357.440381        1.081418  # H_ C_R
    4      391.669513        1.458000  # C_R C_R
    5      462.655054        1.379256  # C_R C_R
    6      714.557442        1.269010  # C_R O_2
    7      663.718927        1.345073  # C_R N_R
    8      578.340382        1.408249  # C_R N_2
    9      231.033365        1.905838  # C_R Br
   10     1117.637895        1.243512  # N_2 N_2

Angle Coeffs

    1       43.207730               1               4 # O_2 Zn4+2 O_2
    2       42.809957               1               4 # N_R Zn4+2 O_2
    3      101.626578              -1               3 # C_R C_R C_R
    4      117.010657              -1               3 # C_R C_R C_R
    5       76.817955              -1               3 # C_R C_R H_
    6      148.862838              -1               3 # O_2 C_R C_R
    7      256.805977              -1               3 # O_2 C_R O_2
    8      109.704024              -1               3 # N_R C_R H_
    9      165.695700              -1               3 # N_R C_R C_R
   10      147.753319              -1               3 # C_R C_R N_2
   11       63.886311              -1               3 # C_R C_R Br
   12       21.958282              -1               3 # Zn4+2 N_R C_R
   13      132.654363              -1               3 # C_R N_R C_R
   14      230.738405              -1               3 # C_R N_2 N_2
   15       28.000941              -1               3 # C_R O_2 Zn4+2

Dihedral Coeffs

    1        0.555556              -1               2 # C_R C_R C_R O_2
    2        1.497136              -1               2 # C_R C_R C_R C_R
    3        2.245703              -1               2 # O_2 C_R O_2 Zn4+2
    4        0.833333              -1               2 # C_R C_R N_2 N_2
    5        4.871694              -1               2 # C_R N_2 N_2 C_R

Improper Coeffs

    1        2.000000        1.000000       -1.000000        0.000000               0 # C_R C_R C_R C_R

Pair Coeffs

    1        0.124000        2.461553 # Zn4+2 Zn4+2
    2        0.044000        2.571134 # H_ H_
    3        0.105000        3.430851 # C_R C_R
    4        0.251000        3.731975 # Br Br
    5        0.069000        3.260689 # N_R N_R
    6        0.069000        3.260689 # N_2 N_2
    7        0.060000        3.118146 # O_2 O_2

Atoms

       1      444        1     0.94760    5.37536    8.08436    9.33483
       2      444        1     0.94760   16.48640    8.08436    9.33483
       3      444        1     0.94760    5.42041    8.08431    6.58341
       4      444        1     0.94760   16.53150    8.08431    6.58341
       5      444        2     0.10932    1.42623   13.52983    5.80911
       6      444        2     0.10932   12.53734   13.52983    5.80911
       7      444        2     0.10932    2.63066   11.35576   10.11071
       8      444        2     0.10932   13.74177   11.35577   10.11071
       9      444        2     0.10932    2.73320   11.39755    5.82806
      10      444        2     0.10932   13.84431   11.39756    5.82806
      11      444        2     0.10932    1.31943   13.48528   10.10912
      12      444        2     0.10932   12.43054   13.48528   10.10912
      13      444        2     0.10932    9.36959   13.52990   10.10912
      14      444        2     0.10932   20.48068   13.52988   10.10912
      15      444        2     0.10932    8.16518   11.35582    5.80752
      16      444        2     0.10932   19.27627   11.35582    5.80752
      17      444        2     0.10932    8.06257   11.39768   10.09018
      18      444        2     0.10932   19.17365   11.39768   10.09018
      19      444        2     0.10932    9.47646   13.48527    5.80911
      20      444        2     0.10932   20.58755   13.48529    5.80911
      21      444        2     0.10932    9.36949    2.63884   10.10912
      22      444        2     0.10932   20.48056    2.63883   10.10912
      23      444        2     0.10932    8.16509    4.81290    5.80752
      24      444        2     0.10932   19.27613    4.81290    5.80752
      25      444        2     0.10932    8.06252    4.77111   10.09018
      26      444        2     0.10932   19.17360    4.77110   10.08938
      27      444        2     0.10932    9.47631    2.68340    5.80911
      28      444        2     0.10932   20.58736    2.68338    5.80911
      29      444        2     0.10932    1.42611    2.63879    5.80911
      30      444        2     0.10932   12.53726    2.63876    5.80911
      31      444        2     0.10932    2.63052    4.81286   10.11071
      32      444        2     0.10932   13.74165    4.81284   10.11071
      33      444        2     0.10932    2.73313    4.77099    5.82806
      34      444        2     0.10932   13.84429    4.77098    5.82806
      35      444        2     0.10932    1.31924    2.68340   10.10912
      36      444        2     0.10932   12.43035    2.68339   10.10912
      37      444        2     0.10932    7.52749    8.08406   11.37021
      38      444        2     0.10932   18.63855    8.08440   11.37021
      39      444        2     0.10932    3.39834    8.08439   11.57891
      40      444        2     0.10932   14.50941    8.08439   11.57891
      41      444        2     0.10932    3.42858    8.08442   14.10889
      42      444        2     0.10932   14.53962    8.08450   14.11001
      43      444        2     0.10932    7.73585    8.08402   13.90115
      44      444        2     0.10932   18.84692    8.08449   13.90115
      45      444        2     0.10932    3.26826    8.08461    4.54802
      46      444        2     0.10932   14.37932    8.08427    4.54802
      47      444        2     0.10932    7.39758    8.08427    4.32993
      48      444        2     0.10932   18.50849    8.08428    4.33932
      49      444        2     0.10932    7.36719    8.08424    1.80822
      50      444        2     0.10932   18.47828    8.08418    1.80822
      51      444        2     0.10932    3.05989    8.08465    2.01708
      52      444        2     0.10932   14.17096    8.08417    2.01708
      53      444        3    -0.02249    2.75541   11.24695    7.96899
      54      444        3    -0.02249   13.86650   11.24695    7.96899
      55      444        3    -0.02249    0.54820   14.93765    7.95593
      56      444        3    -0.02249   11.65929   14.93764    7.95593
      57      444        3    -0.11473    1.68085   13.04673    6.75310
      58      444        3    -0.11473   12.79197   13.04673    6.75310
      59      444        3    -0.11473    2.34875   11.83562    9.17405
      60      444        3    -0.11473   13.45986   11.83562    9.17405
      61      444        3    -0.11473    2.40676   11.85908    6.75883
      62      444        3    -0.11473   13.51787   11.85908    6.75883
      63      444        3    -0.02249    1.29026   13.64559    7.95848
      64      444        3    -0.02249   12.40134   13.64559    7.95848
      65      444        3     0.68750    3.61004   10.01487    7.98077
      66      444        3     0.68750   14.72117   10.01489    7.98077
      67      444        3    -0.11473    1.62117   13.02200    9.16911
      68      444        3    -0.11473   12.73228   13.02200    9.16911
      69      444        3    -0.02249    8.04049   11.24703    7.94352
      70      444        3    -0.02249   19.15151   11.24702    7.94813
      71      444        3    -0.02249   10.24776   14.93767    7.96230
      72      444        3    -0.02249   21.35885   14.93767    7.96230
      73      444        3    -0.11473    9.11497   13.04680    9.16513
      74      444        3    -0.11473   20.22606   13.04680    9.16513
      75      444        3    -0.11473    8.44707   11.83568    6.74323
      76      444        3    -0.11473   19.55818   11.83568    6.74339
      77      444        3    -0.11473    8.38903   11.85918    9.15940
      78      444        3    -0.11473   19.50012   11.85916    9.15940
      79      444        3    -0.02249    9.50564   13.64564    7.95975
      80      444        3    -0.02249   20.61673   13.64564    7.95975
      81      444        3     0.68750    7.18573   10.01492    7.93747
      82      444        3     0.68750   18.29679   10.01493    7.93747
      83      444        3    -0.11473    9.17468   13.02204    6.74912
      84      444        3    -0.11473   20.28577   13.02203    6.74912
      85      444        3    -0.02249    8.04035    4.92171    7.94829
      86      444        3    -0.02249   19.15142    4.92171    7.94829
      87      444        3    -0.02249   10.24754    1.23104    7.96230
      88      444        3    -0.02249   21.35861    1.23102    7.96230
      89      444        3    -0.11473    9.11489    3.12194    9.16513
      90      444        3    -0.11473   20.22593    3.12193    9.16513
      91      444        3    -0.11473    8.44698    4.33305    6.74355
      92      444        3    -0.11473   19.55805    4.33304    6.74355
      93      444        3    -0.11473    8.38896    4.30960    9.15940
      94      444        3    -0.11473   19.50003    4.30958    9.15940
      95      444        3    -0.02249    9.50549    2.52309    7.95975
      96      444        3    -0.02249   20.61655    2.52309    7.95975
      97      444        3     0.68750    7.18568    6.15380    7.93747
      98      444        3     0.68750   18.29673    6.15379    7.93747
      99      444        3    -0.11473    9.17455    3.14668    6.74912
     100      444        3    -0.11473   20.28560    3.14666    6.74912
     101      444        3    -0.02249    2.75530    4.92166    7.97010
     102      444        3    -0.02249   13.86641    4.92164    7.97010
     103      444        3    -0.02249    0.54794    1.23100    7.95593
     104      444        3    -0.02249   11.65907    1.23100    7.95593
     105      444        3    -0.11473    1.68073    3.12187    6.75310
     106      444        3    -0.11473   12.79188    3.12186    6.75310
     107      444        3    -0.11473    2.34863    4.33299    9.17484
     108      444        3    -0.11473   13.45974    4.33298    9.17484
     109      444        3    -0.11473    2.40669    4.30951    6.75883
     110      444        3    -0.11473   13.51783    4.30950    6.75883
     111      444        3    -0.02249    1.29008    2.52304    7.95848
     112      444        3    -0.02249   12.40119    2.52302    7.95848
     113      444        3     0.68750    3.60999    6.15376    7.98077
     114      444        3     0.68750   14.72113    6.15373    7.98077
     115      444        3    -0.11473    1.62102    3.14665    9.16911
     116      444        3    -0.11473   12.73215    3.14663    9.16911
     117      444        3     0.17695    6.65492    8.08415   12.02352
     118      444        3     0.17695   17.76601    8.08442   12.02352
     119      444        3     0.17695    4.33005    8.08435   12.14451
     120      444        3     0.17695   15.44111    8.08441   12.14498
     121      444        3    -0.11473    4.34951    8.08435   13.53120
     122      444        3    -0.11473   15.46058    8.08448   13.53104
     123      444        3     0.23465    5.59483    8.08427   14.18005
     124      444        3     0.23465   16.70590    8.08452   14.17894
     125      444        3    -0.11473    6.76391    8.08412   13.41006
     126      444        3    -0.11473   17.87498    8.08447   13.41006
     127      444        3     0.17695    4.14080    8.08453    3.89471
     128      444        3     0.17695   15.25189    8.08425    3.89471
     129      444        3     0.17695    6.46570    8.08433    3.77325
     130      444        3     0.17695   17.57679    8.08426    3.77325
     131      444        3    -0.11473    6.44623    8.08431    2.38719
     132      444        3    -0.11473   17.55734    8.08420    2.38624
     133      444        3     0.23465    5.20099    8.08440    1.73516
     134      444        3     0.23465   16.31200    8.08416    1.73834
     135      444        3    -0.11473    4.03183    8.08454    2.50818
     136      444        3    -0.11473   15.14290    8.08420    2.50818
     137      444        3     0.05793    1.22222   16.16823    7.95339
     138      444        3     0.05793   12.33333   16.16823    7.95339
     139      444        3     0.05793    9.57345    0.00031    7.96485
     140      444        3     0.05793   20.68452    0.00030    7.96485
     141      444        4    -0.17191    3.14636   16.16817    7.95657
     142      444        4    -0.17191   14.25747   16.16815    7.95657
     143      444        4    -0.17191    7.64931    0.00039    7.96166
     144      444        4    -0.17191   18.76038    0.00038    7.96166
     145      444        5    -0.27200    5.46025    8.08426   11.40428
     146      444        5    -0.27200   16.57136    8.08439   11.40428
     147      444        6    -0.12501    5.78422    8.08431   15.58696
     148      444        6    -0.12501   16.89524    8.08458   15.58696
     149      444        5    -0.27200    5.33546    8.08440    4.51316
     150      444        5    -0.27200   16.44657    8.08429    4.51316
     151      444        6    -0.12501    5.01159    8.08437    0.33127
     152      444        6    -0.12501   16.12261    8.08411    0.33127
     153      444        7    -0.60745    3.97446    9.54772    6.85164
     154      444        7    -0.60745   15.08555    9.54770    6.85164
     155      444        7    -0.60745    3.93495    9.54449    9.12072
     156      444        7    -0.60745   15.04602    9.54450    9.12072
     157      444        7    -0.60745    6.82131    9.54783    9.06659
     158      444        7    -0.60745   17.93240    9.54780    9.06659
     159      444        7    -0.60745    6.86084    9.54448    6.79752
     160      444        7    -0.60745   17.97193    9.54448    6.79752
     161      444        7    -0.60745    6.82126    6.62094    9.06659
     162      444        7    -0.60745   17.93235    6.62097    9.06659
     163      444        7    -0.60745    6.86077    6.62417    6.79752
     164      444        7    -0.60745   17.97185    6.62417    6.79752
     165      444        7    -0.60745    3.97441    6.62086    6.85164
     166      444        7    -0.60745   15.08550    6.62088    6.85164
     167      444        7    -0.60745    3.93488    6.62419    9.12072
     168      444        7    -0.60745   15.04597    6.62419    9.12072
     169      444        1     0.94760    5.05969    8.08492   25.25370
     170      444        1     0.94760   16.17074    8.08492   25.25370
     171      444        1     0.94760    5.10474    8.08487   22.50228
     172      444        1     0.94760   16.21583    8.08487   22.50228
     173      444        2     0.10932    1.11056   13.53039   21.72798
     174      444        2     0.10932   12.22168   13.53039   21.72798
     175      444        2     0.10932    2.31499   11.35632   26.02958
     176      444        2     0.10932   13.42610   11.35633   26.02958
     177      444        2     0.10932    2.41754   11.39811   21.74693
     178      444        2     0.10932   13.52865   11.39812   21.74693
     179      444        2     0.10932    1.00376   13.48584   26.02799
     180      444        2     0.10932   12.11487   13.48584   26.02799
     181      444        2     0.10932    9.05393   13.53046   26.02799
     182      444        2     0.10932   20.16502   13.53045   26.02799
     183      444        2     0.10932    7.84951   11.35638   21.72639
     184      444        2     0.10932   18.96060   11.35638   21.72639
     185      444        2     0.10932    7.74690   11.39824   26.00905
     186      444        2     0.10932   18.85799   11.39824   26.00905
     187      444        2     0.10932    9.16079   13.48583   21.72798
     188      444        2     0.10932   20.27188   13.48585   21.72798
     189      444        2     0.10932    9.05383    2.63941   26.02799
     190      444        2     0.10932   20.16489    2.63939   26.02799
     191      444        2     0.10932    7.84942    4.81346   21.72639
     192      444        2     0.10932   18.96047    4.81346   21.72639
     193      444        2     0.10932    7.74685    4.77167   26.00905
     194      444        2     0.10932   18.85794    4.77166   26.00825
     195      444        2     0.10932    9.16065    2.68396   21.72798
     196      444        2     0.10932   20.27169    2.68394   21.72798
     197      444        2     0.10932    1.11044    2.63935   21.72798
     198      444        2     0.10932   12.22160    2.63932   21.72798
     199      444        2     0.10932    2.31486    4.81342   26.02958
     200      444        2     0.10932   13.42599    4.81340   26.02958
     201      444        2     0.10932    2.41747    4.77156   21.74693
     202      444        2     0.10932   13.52862    4.77154   21.74693
     203      444        2     0.10932    1.00358    2.68396   26.02799
     204      444        2     0.10932   12.11469    2.68395   26.02799
     205      444        2     0.10932    7.21182    8.08462   27.28908
     206      444        2     0.10932   18.32289    8.08496   27.28908
     207      444        2     0.10932    3.08268    8.08495   27.49778
     208      444        2     0.10932   14.19375    8.08495   27.49778
     209      444        2     0.10932    3.11291    8.08498   30.02777
     210      444        2     0.10932   14.22396    8.08506   30.02888
     211      444        2     0.10932    7.42019    8.08458   29.82002
     212      444        2     0.10932   18.53125    8.08505   29.82002
     213      444        2     0.10932    2.95259    8.08517   20.46689
     214      444        2     0.10932   14.06366    8.08483   20.46689
     215      444        2     0.10932    7.08192    8.08483   20.24880
     216      444        2     0.10932   18.19282    8.08484   20.25820
     217      444        2     0.10932    7.05152    8.08480   17.72710
     218      444        2     0.10932   18.16261    8.08474   17.72710
     219      444        2     0.10932    2.74423    8.08521   17.93595
     220      444        2     0.10932   13.85529    8.08473   17.93595
     221      444        3    -0.02249    2.43975   11.24751   23.88786
     222      444        3    -0.02249   13.55084   11.24751   23.88786
     223      444        3    -0.02249    0.23254   14.93821   23.87480
     224      444        3    -0.02249   11.34363   14.93820   23.87480
     225      444        3    -0.11473    1.36519   13.04729   22.67197
     226      444        3    -0.11473   12.47630   13.04729   22.67197
     227      444        3    -0.11473    2.03309   11.83618   25.09292
     228      444        3    -0.11473   13.14420   11.83618   25.09292
     229      444        3    -0.11473    2.09109   11.85964   22.67770
     230      444        3    -0.11473   13.20220   11.85964   22.67770
     231      444        3    -0.02249    0.97459   13.64615   23.87735
     232      444        3    -0.02249   12.08568   13.64615   23.87735
     233      444        3     0.68750    3.29437   10.01543   23.89964
     234      444        3     0.68750   14.40551   10.01545   23.89964
     235      444        3    -0.11473    1.30550   13.02256   25.08798
     236      444        3    -0.11473   12.41662   13.02256   25.08798
     237      444        3    -0.02249    7.72482   11.24759   23.86239
     238      444        3    -0.02249   18.83584   11.24758   23.86700
     239      444        3    -0.02249    9.93209   14.93823   23.88117
     240      444        3    -0.02249   21.04318   14.93823   23.88117
     241      444        3    -0.11473    8.79931   13.04736   25.08400
     242      444        3    -0.11473   19.91040   13.04736   25.08400
     243      444        3    -0.11473    8.13141   11.83624   22.66210
     244      444        3    -0.11473   19.24252   11.83624   22.66226
     245      444        3    -0.11473    8.07336   11.85974   25.07827
     246      444        3    -0.11473   19.18445   11.85972   25.07827
     247      444        3    -0.02249    9.18997   13.64620   23.87862
     248      444        3    -0.02249   20.30106   13.64620   23.87862
     249      444        3     0.68750    6.87006   10.01548   23.85634
     250      444        3     0.68750   17.98113   10.01549   23.85634
     251      444        3    -0.11473    8.85902   13.02260   22.66799
     252      444        3    -0.11473   19.97010   13.02259   22.66799
     253      444        3    -0.02249    7.72468    4.92227   23.86716
     254      444        3    -0.02249   18.83575    4.92227   23.86716
     255      444        3    -0.02249    9.93188    1.23160   23.88117
     256      444        3    -0.02249   21.04294    1.23158   23.88117
     257      444        3    -0.11473    8.79922    3.12250   25.08400
     258      444        3    -0.11473   19.91027    3.12249   25.08400
     259      444        3    -0.11473    8.13132    4.33361   22.66242
     260      444        3    -0.11473   19.24238    4.33360   22.66242
     261      444        3    -0.11473    8.07330    4.31016   25.07827
     262      444        3    -0.11473   19.18437    4.31014   25.07827
     263      444        3    -0.02249    9.18982    2.52365   23.87862
     264      444        3    -0.02249   20.30089    2.52365   23.87862
     265      444        3     0.68750    6.87002    6.15437   23.85634
     266      444        3     0.68750   17.98106    6.15435   23.85634
     267      444        3    -0.11473    8.85889    3.14724   22.66799
     268      444        3    -0.11473   19.96993    3.14722   22.66799
     269      444        3    -0.02249    2.43964    4.92222   23.88897
     270      444        3    -0.02249   13.55075    4.92220   23.88897
     271      444        3    -0.02249    0.23228    1.23157   23.87480
     272      444        3    -0.02249   11.34341    1.23157   23.87480
     273      444        3    -0.11473    1.36506    3.12244   22.67197
     274      444        3    -0.11473   12.47622    3.12242   22.67197
     275      444        3    -0.11473    2.03296    4.33355   25.09371
     276      444        3    -0.11473   13.14408    4.33354   25.09371
     277      444        3    -0.11473    2.09103    4.31007   22.67770
     278      444        3    -0.11473   13.20216    4.31006   22.67770
     279      444        3    -0.02249    0.97442    2.52360   23.87735
     280      444        3    -0.02249   12.08553    2.52358   23.87735
     281      444        3     0.68750    3.29433    6.15432   23.89964
     282      444        3     0.68750   14.40546    6.15429   23.89964
     283      444        3    -0.11473    1.30535    3.14721   25.08798
     284      444        3    -0.11473   12.41649    3.14719   25.08798
     285      444        3     0.17695    6.33925    8.08471   27.94239
     286      444        3     0.17695   17.45034    8.08499   27.94239
     287      444        3     0.17695    4.01439    8.08491   28.06338
     288      444        3     0.17695   15.12545    8.08497   28.06385
     289      444        3    -0.11473    4.03385    8.08491   29.45007
     290      444        3    -0.11473   15.14492    8.08504   29.44991
     291      444        3     0.23465    5.27917    8.08483   30.09892
     292      444        3     0.23465   16.39023    8.08508   30.09781
     293      444        3    -0.11473    6.44825    8.08468   29.32893
     294      444        3    -0.11473   17.55931    8.08503   29.32893
     295      444        3     0.17695    3.82514    8.08509   19.81358
     296      444        3     0.17695   14.93623    8.08481   19.81358
     297      444        3     0.17695    6.15003    8.08489   19.69212
     298      444        3     0.17695   17.26112    8.08482   19.69212
     299      444        3    -0.11473    6.13056    8.08487   18.30606
     300      444        3    -0.11473   17.24167    8.08476   18.30511
     301      444        3     0.23465    4.88533    8.08496   17.65403
     302      444        3     0.23465   15.99633    8.08472   17.65721
     303      444        3    -0.11473    3.71617    8.08510   18.42705
     304      444        3    -0.11473   14.82723    8.08476   18.42705
     305      444        3     0.05793    0.90656   16.16879   23.87226
     306      444        3     0.05793   12.01767   16.16879   23.87226
     307      444        3     0.05793    9.25779    0.00087   23.88372
     308      444        3     0.05793   20.36886    0.00086   23.88372
     309      444        4    -0.17191    2.83070   16.16873   23.87544
     310      444        4    -0.17191   13.94181   16.16871   23.87544
     311      444        4    -0.17191    7.33365    0.00096   23.88053
     312      444        4    -0.17191   18.44472    0.00094   23.88053
     313      444        5    -0.27200    5.14459    8.08482   27.32315
     314      444        5    -0.27200   16.25570    8.08495   27.32315
     315      444        6    -0.12501    5.46856    8.08487   31.50583
     316      444        6    -0.12501   16.57958    8.08514   31.50583
     317      444        5    -0.27200    5.01980    8.08496   20.43203
     318      444        5    -0.27200   16.13091    8.08485   20.43203
     319      444        6    -0.12501    4.69592    8.08493   16.25014
     320      444        6    -0.12501   15.80695    8.08467   16.25014
     321      444        7    -0.60745    3.65880    9.54828   22.77051
     322      444        7    -0.60745   14.76989    9.54827   22.77051
     323      444        7    -0.60745    3.61929    9.54505   25.03959
     324      444        7    -0.60745   14.73036    9.54506   25.03959
     325      444        7    -0.60745    6.50565    9.54839   24.98546
     326      444        7    -0.60745   17.61674    9.54836   24.98546
     327      444        7    -0.60745    6.54517    9.54505   22.71639
     328      444        7    -0.60745   17.65626    9.54505   22.71639
     329      444        7    -0.60745    6.50560    6.62150   24.98546
     330      444        7    -0.60745   17.61668    6.62153   24.98546
     331      444        7    -0.60745    6.54510    6.62473   22.71639
     332      444        7    -0.60745   17.65619    6.62473   22.71639
     333      444        7    -0.60745    3.65875    6.62142   22.77051
     334      444        7    -0.60745   14.76983    6.62144   22.77051
     335      444        7    -0.60745    3.61922    6.62475   25.03959
     336      444        7    -0.60745   14.73031    6.62475   25.03959
     337      444        1     0.94760    5.37564   24.25236    9.33483
     338      444        1     0.94760   16.48668   24.25236    9.33483
     339      444        1     0.94760    5.42069   24.25231    6.58341
     340      444        1     0.94760   16.53178   24.25231    6.58341
     341      444        2     0.10932    1.42651   29.69783    5.80911
     342      444        2     0.10932   12.53762   29.69783    5.80911
     343      444        2     0.10932    2.63094   27.52376   10.11071
     344      444        2     0.10932   13.74205   27.52377   10.11071
     345      444        2     0.10932    2.73348   27.56555    5.82806
     346      444        2     0.10932   13.84460   27.56556    5.82806
     347      444        2     0.10932    1.31971   29.65328   10.10912
     348      444        2     0.10932   12.43082   29.65328   10.10912
     349      444        2     0.10932    9.36987   29.69790   10.10912
     350      444        2     0.10932   20.48096   29.69788   10.10912
     351      444        2     0.10932    8.16546   27.52382    5.80752
     352      444        2     0.10932   19.27655   27.52382    5.80752
     353      444        2     0.10932    8.06285   27.56568   10.09018
     354      444        2     0.10932   19.17394   27.56568   10.09018
     355      444        2     0.10932    9.47674   29.65327    5.80911
     356      444        2     0.10932   20.58783   29.65329    5.80911
     357      444        2     0.10932    9.36977   18.80684   10.10912
     358      444        2     0.10932   20.48084   18.80683   10.10912
     359      444        2     0.10932    8.16537   20.98090    5.80752
     360      444        2     0.10932   19.27641   20.98090    5.80752
     361      444        2     0.10932    8.06280   20.93911   10.09018
     362      444        2     0.10932   19.17388   20.93910   10.08938
     363      444        2     0.10932    9.47660   18.85140    5.80911
     364      444        2     0.10932   20.58764   18.85138    5.80911
     365      444        2     0.10932    1.42639   18.80679    5.80911
     366      444        2     0.10932   12.53754   18.80676    5.80911
     367      444        2     0.10932    2.63080   20.98086   10.11071
     368      444        2     0.10932   13.74194   20.98084   10.11071
     369      444        2     0.10932    2.73341   20.93899    5.82806
     370      444        2     0.10932   13.84457   20.93898    5.82806
     371      444        2     0.10932    1.31952   18.85140   10.10912
     372      444        2     0.10932   12.43063   18.85139   10.10912
     373      444        2     0.10932    7.52777   24.25206   11.37021
     374      444        2     0.10932   18.63884   24.25240   11.37021