Created on Tue Feb 06 15:44:40 2018 

        2016 atoms
        2400 bonds
        4224 angles
        4736 dihedrals
        2880 impropers

           5 atom types
           5 bond types
           8 angle types
           3 dihedral types
           1 improper types
           0.000000  34.766000 xlo xhi
           0.000000  37.290000 ylo yhi
           0.000000  36.367116 zlo zhi
          -0.004556  -0.022216  -0.252628 xy xz yz

Masses

    1    65.380000000 # Zn3f2
    2     1.007940000 # H_
    3    12.010700000 # C_R
    4    15.999400000 # O_2
    5    15.999400000 # O_3_f

Bond Coeffs

    1      122.127512        2.014866  # Zn3f2 O_2
    2      357.440381        1.081418  # H_ C_R
    3      714.557442        1.269010  # C_R O_2
    4      391.669513        1.458000  # C_R C_R
    5      462.655054        1.379256  # C_R C_R

Angle Coeffs

    1                      fourier       32.394397        0.343737        0.374972        0.281246 # O_2 Zn3f2 O_3_f
    2              cosine/periodic      148.862838              -1               3 # C_R C_R O_2
    3              cosine/periodic      256.805977              -1               3 # O_2 C_R O_2
    4              cosine/periodic       76.817955              -1               3 # H_ C_R C_R
    5              cosine/periodic      117.010657              -1               3 # C_R C_R C_R
    6              cosine/periodic      101.626578              -1               3 # C_R C_R C_R
    7              cosine/periodic       33.013732              -1               3 # Zn3f2 O_2 C_R
    8                      fourier       10.476826        0.343737        0.374972        0.281246 # Zn3f2 O_3_f Zn3f2

Dihedral Coeffs

    1        2.245703              -1               2 # C_R C_R O_2 Zn3f2
    2        0.555556              -1               2 # O_2 C_R C_R C_R
    3        1.497136              -1               2 # H_ C_R C_R C_R

Improper Coeffs

    1        2.000000        1.000000       -1.000000        0.000000               0 # O_2 C_R O_2 C_R

Pair Coeffs

    1        0.124000        2.461553 # Zn3f2 Zn3f2
    2        0.044000        2.571134 # H_ H_
    3        0.105000        3.430851 # C_R C_R
    4        0.060000        3.118146 # O_2 O_2
    5        0.060000        3.118146 # O_3_f O_3_f

Atoms

       1      444        1     1.19526   14.36642   12.63570    1.08701
       2      444        1     1.19526   12.16606    3.32522    6.99212
       3      444        1     1.19526   14.35449   12.58326   16.08663
       4      444        1     1.19526   12.16210    3.25266   10.17516
       5      444        1     1.19526   12.04413   10.95023   17.72733
       6      444        1     1.19526   12.03741   14.13700   17.67369
       7      444        1     1.19526   14.47762    1.69580    8.64028
       8      444        1     1.19526   14.48252    4.88177    8.57755
       9      444        1     1.19526    3.01658    5.92308    2.10238
      10      444        1     1.19526    5.20946   15.23347    8.00695
      11      444        1     1.19526    3.00095    5.87803   17.09691
      12      444        1     1.19526    5.20552   15.18772   11.19380
      13      444        1     1.19526    5.32613    7.53452    0.45623
      14      444        1     1.19526    5.33328    4.36558    0.51187
      15      444        1     1.19526    2.89205   16.78729    9.54637
      16      444        1     1.19526    2.88595   13.62229    9.60674
      17      444        2     0.11634    5.43757   10.78476    0.61333
      18      444        2     0.11634   15.02156    9.74763    4.07039
      19      444        2     0.11634   11.38268    8.14949    2.43605
      20      444        2     0.11634   11.41366    6.32067    4.14240
      21      444        2     0.11634   15.04485    7.92238    5.79383
      22      444        2     0.11634    1.13002   13.22037   15.65277
      23      444        2     0.11634    3.61326   13.24832   15.68732
      24      444        2     0.11634    3.57439   11.89467    1.55469
      25      444        2     0.11634    1.21469    1.45387    9.76930
      26      444        2     0.11634   11.68655    0.55314    3.92910
      27      444        2     0.11634   14.87040   17.15332    5.96239
      28      444        2     0.11634   14.82334   15.35090    4.22695
      29      444        2     0.11634   11.63746   17.38924    2.19057
      30      444        2     0.11634    8.05223    2.77844   10.68739
      31      444        2     0.11634    1.23656    5.09510    7.48072
      32      444        2     0.11634    3.72502    5.06710    7.45526
      33      444        2     0.11634    7.91815   10.75780    0.54860
      34      444        2     0.11634   14.93028    9.75490   13.10271
      35      444        2     0.11634   11.67084    7.74073   15.04962
      36      444        2     0.11634   11.73292    5.94975   13.30236
      37      444        2     0.11634   14.98524    7.96206   11.34709
      38      444        2     0.11634    1.09076   11.91602    1.52105
      39      444        2     0.11634    7.90519   14.41070   16.68232
      40      444        2     0.11634    5.41787   14.40633   16.66687
      41      444        2     0.11634    3.69033    1.47080    9.83549
      42      444        2     0.11634   11.49235    0.38189   13.17217
      43      444        2     0.11634   15.01462   17.29455   11.42782
      44      444        2     0.11634   14.96275   15.46487   13.13089
      45      444        2     0.11634   11.45237   17.20504   14.89761
      46      444        2     0.11634    7.99736    3.66652    6.48444
      47      444        2     0.11634    5.50763    3.68467    6.51517
      48      444        2     0.11634    5.56364    2.76790   10.72703
      49      444        2     0.11634   11.92646    7.72347   17.57768
      50      444        2     0.11634    2.46920    8.72226    5.10467
      51      444        2     0.11634    5.73435   10.72815    3.15921
      52      444        2     0.11634    5.66350   12.52863    4.89738
      53      444        2     0.11634    2.39974   10.52826    6.84629
      54      444        2     0.11634   16.27146    6.58380   16.65396
      55      444        2     0.11634   16.16448   17.03872    8.42171
      56      444        2     0.11634    5.86054   18.09518    4.99230
      57      444        2     0.11634    2.35004    1.18863    6.75374
      58      444        2     0.11634    2.39979    3.02022    5.05321
      59      444        2     0.11634    5.90007    1.27513    3.27177
      60      444        2     0.11634    9.37440   14.81119   11.69276
      61      444        2     0.11634   16.11994   13.38883   10.69466
      62      444        2     0.11634   13.63162   13.42745   10.71302
      63      444        2     0.11634    9.44495    7.73946   17.63987
      64      444        2     0.11634    2.33954    8.78020   14.14135
      65      444        2     0.11634    5.98485   10.37723   15.76333
      66      444        2     0.11634    5.95153   12.20143   14.05262
      67      444        2     0.11634    2.31584   10.59853   12.41264
      68      444        2     0.11634   16.24742    5.34306    2.54443
      69      444        2     0.11634   13.76371    5.29947    2.51460
      70      444        2     0.11634   13.78744    6.59309   16.62595
      71      444        2     0.11634    9.47344    4.09067    1.51396
      72      444        2     0.11634   11.96154    4.10832    1.53433
      73      444        2     0.11634   13.68886   17.03199    8.34643
      74      444        2     0.11634    5.69531   17.97218   14.23845
      75      444        2     0.11634    2.48894    1.35430   12.22281
      76      444        2     0.11634    2.53574    3.15657   13.95824
      77      444        2     0.11634    5.74409    1.13566   15.97644
      78      444        2     0.11634    9.31319   15.76377    7.50417
      79      444        2     0.11634   11.80150   15.77488    7.45890
      80      444        2     0.11634   11.86408   14.79647   11.65839
      81      444        3     0.71079   13.27233    5.91207    6.07167
      82      444        3    -0.08918    5.97575   11.61462    0.15838
      83      444        3    -0.05969   13.23583    7.01284    5.06321
      84      444        3    -0.05969   13.20375    9.04976    3.15139
      85      444        3     0.71079   13.20680   10.11460    2.10402
      86      444        3    -0.08918   14.23610    8.99435    4.09857
      87      444        3    -0.08918   12.17847    8.09310    3.17539
      88      444        3    -0.08918   12.19644    7.07707    4.12385
      89      444        3    -0.08918   14.25031    7.98265    5.05212
      90      444        3    -0.08918    1.67303   12.91756   16.54686
      91      444        3    -0.08918    3.06213   12.93871   16.57431
      92      444        3    -0.08918    3.04615   12.21123    0.65497
      93      444        3     0.71079   13.21132   15.19852    2.05511
      94      444        3    -0.08918    1.77119    2.25924    9.29125
      95      444        3    -0.05969   13.22807   16.26586    3.10593
      96      444        3    -0.05969   13.27965   18.28441    5.04776
      97      444        3     0.71079   13.31227    0.72627    6.07767
      98      444        3    -0.08918   12.36560   18.35107    3.98511
      99      444        3    -0.08918   14.16399   17.19775    5.13595
     100      444        3    -0.08918   14.13856   16.19542    4.17149
     101      444        3    -0.08918   12.33906   17.34858    3.02211
     102      444        3    -0.08918    7.48441    2.96769    9.77784
     103      444        3    -0.08918    1.78621    4.29897    7.98276
     104      444        3    -0.08918    3.17591    4.28043    7.97385
     105      444        3     0.71079   13.37263    5.80056   11.15616
     106      444        3    -0.08918    7.36553   11.59280    0.11928
     107      444        3    -0.05969   13.36106    6.85351   12.22099
     108      444        3    -0.05969   13.29867    8.85485   14.17990
     109      444        3     0.71079   13.25162    9.94036   15.20964
     110      444        3    -0.08918   14.23669    8.91649   13.13744
     111      444        3    -0.08918   12.39820    7.77961   14.24082
     112      444        3    -0.08918   12.43038    6.78492   13.26909
     113      444        3    -0.08918   14.26792    7.92279   12.16516
     114      444        3    -0.08918    1.65630   12.22285    0.64261
     115      444        3    -0.08918    7.35125   13.58655   17.12982
     116      444        3    -0.08918    5.96115   13.57991   17.12582
     117      444        3     0.71079   13.18194   15.14361   15.14127
     118      444        3    -0.08918    3.16106    2.27423    9.32598
     119      444        3    -0.05969   13.20371   16.22762   14.11317
     120      444        3    -0.05969   13.25449   18.26663   12.19971
     121      444        3     0.71079   13.28004    0.70270   11.16743
     122      444        3    -0.08918   12.24674   18.24438   13.17581
     123      444        3    -0.08918   14.23855   17.26724   12.18917
     124      444        3    -0.08918   14.20957   16.25023   13.13635
     125      444        3    -0.08918   12.22382   17.23321   14.12990
     126      444        3    -0.08918    7.45461    3.48220    7.41053
     127      444        3    -0.08918    6.06433    3.50073    7.43435
     128      444        3    -0.08918    6.09444    2.95992    9.79366
     129      444        3    -0.05969    8.06142   12.52096   17.70388
     130      444        3     0.71079   16.84432   12.53182   17.66969
     131      444        3     0.71079    9.55089   12.51466   17.68151
     132      444        3    -0.05969    5.24380   12.53445   17.73661
     133      444        3    -0.05969    0.95059   12.51060   17.67842
     134      444        3    -0.05969    3.76762   12.52067   17.71860
     135      444        3    -0.05969    1.07087    3.27616    8.62483
     136      444        3     0.71079    9.66864    3.25215    8.57809
     137      444        3     0.71079   16.96439    3.26956    8.59337
     138      444        3    -0.05969    3.88560    3.27053    8.64937
     139      444        3    -0.05969    8.17839    3.22993    8.58609
     140      444        3    -0.05969    5.36180    3.24311    8.62628
     141      444        3     0.71079    4.00823   12.69507    7.02831
     142      444        3    -0.08918   11.39085    6.89281   18.03427
     143      444        3    -0.05969    4.02832   11.63204    5.97403
     144      444        3    -0.05969    4.10403    9.61835    4.02948
     145      444        3     0.71079    4.14938    8.52913    3.00429
     146      444        3    -0.08918    3.16149    9.56162    5.06776
     147      444        3    -0.08918    5.00393   10.69340    3.96565
     148      444        3    -0.08918    4.96607   11.69356    4.93156
     149      444        3    -0.08918    3.12248   10.56227    6.03276
     150      444        3    -0.08918   15.70922    6.28895   17.53877
     151      444        3     0.71079    4.17991    3.34852    3.03956
     152      444        3    -0.08918   15.60293   16.23397    8.89358
     153      444        3    -0.05969    4.15452    2.25767    4.06312
     154      444        3    -0.05969    4.10490    0.21259    5.97494
     155      444        3     0.71079    4.08376   17.77508    7.00758
     156      444        3    -0.08918    5.10821    0.23479    4.99320
     157      444        3    -0.08918    3.12349    1.21469    5.98948
     158      444        3    -0.08918    3.15157    2.23357    5.04230
     159      444        3    -0.08918    5.13073    1.24825    4.04166
     160      444        3    -0.08918    9.91599   15.00935   10.76885
     161      444        3    -0.08918   15.57516   14.18917   10.19570
     162      444        3    -0.08918   14.18575   14.21372   10.19916
     163      444        3     0.71079    4.09378   12.60478   12.12171
     164      444        3    -0.08918   10.00107    6.90807   18.07082
     165      444        3    -0.05969    4.12769   11.50846   13.13598
     166      444        3    -0.05969    4.16091    9.47712   15.05562
     167      444        3     0.71079    4.16139    8.41085   16.10209
     168      444        3    -0.08918    3.12618    9.53211   14.10971
     169      444        3    -0.08918    5.18691   10.43273   15.02635
     170      444        3    -0.08918    5.16783   11.44609   14.07480
     171      444        3    -0.08918    3.11168   10.54033   13.15326
     172      444        3    -0.08918   15.70080    5.62968    1.64725
     173      444        3    -0.08918   14.31187    5.59972    1.62197
     174      444        3    -0.08918   14.31938    6.29347   17.52913
     175      444        3    -0.08918   10.02418    4.91644    1.06556
     176      444        3    -0.08918   11.41432    4.93030    1.07101
     177      444        3     0.71079    4.15844    3.31796   16.12263
     178      444        3    -0.08918   14.21318   16.22465    8.85485
     179      444        3    -0.05969    4.14204    2.25083   15.07071
     180      444        3    -0.05969    4.09080    0.23152   13.12726
     181      444        3     0.71079    4.05836   17.78810   12.09934
     182      444        3    -0.08918    5.01127    0.17045   14.18499
     183      444        3    -0.08918    3.20043    1.31363   13.04507
     184      444        3    -0.08918    3.22578    2.31609   14.00970
     185      444        3    -0.08918    5.03755    1.17294   15.14909
     186      444        3    -0.08918    9.88251   15.55973    8.40953
     187      444        3    -0.08918   11.27241   15.56862    8.39171
     188      444        3    -0.08918   11.30602   14.99301   10.74285
     189      444        3    -0.05969    9.30988    5.97650    0.48677
     190      444        3     0.71079    0.52482    6.00754    0.51459
     191      444        3     0.71079    7.82067    5.97542    0.50478
     192      444        3    -0.05969   12.12671    5.97748    0.45877
     193      444        3    -0.05969   16.41871    6.02306    0.50805
     194      444        3    -0.05969   13.60270    5.99762    0.47368
     195      444        3    -0.05969   16.29647   15.21239    9.56146
     196      444        3     0.71079    7.70075   15.24598    9.60601
     197      444        3     0.71079    0.40232   15.21490    9.60037
     198      444        3    -0.05969   13.48242   15.23060    9.52800
     199      444        3    -0.05969    9.19058   15.27704    9.59801
     200      444        3    -0.05969   12.00669   15.26498    9.55291
     201      444        4    -0.63506   12.39344    9.95979    1.13193
     202      444        4    -0.63506   14.07429    6.06290    7.05158
     203      444        4    -0.63506   14.02105   11.08507    2.26022
     204      444        4    -0.63506   12.50493    4.91076    5.86402
     205      444        4    -0.63506   16.27017   12.51067    0.61333
     206      444        4    -0.63506   14.13725    0.58022    7.04486
     207      444        4    -0.63506   12.33366   15.31585    1.13374
     208      444        4    -0.63506   12.51363    1.70558    5.90584
     209      444        4    -0.63506   14.07520   14.26611    2.16530
     210      444        4    -0.63506   10.24849    3.33242    7.43980
     211      444        4    -0.63506   12.39692    9.80172   16.15173
     212      444        4    -0.63506   14.24652    5.92736   10.23189
     213      444        4    -0.63506   14.06362   10.91277   15.05799
     214      444        4    -0.63506   12.50569    4.87068   11.25871
     215      444        4    -0.63506   16.26701   12.70189   16.53922
     216      444        4    -0.63506   14.12899    0.57306   10.22280
     217      444        4    -0.63506   12.39562   15.31201   16.13318
     218      444        4    -0.63506   12.45232    1.66479   11.31090
     219      444        4    -0.63506   13.94975   14.14083   14.94307
     220      444        4    -0.63506   10.25202    3.19418    9.71438
     221      444        5    -1.38211   13.19508   12.54220   17.67915
     222      444        4    -0.63506   10.12852   11.38475   17.84553
     223      444        4    -0.63506   10.13379   13.63775   17.49858
     224      444        5    -1.38211   13.32262    3.28889    8.58519
     225      444        4    -0.63506   16.38641    2.14882    8.80812
     226      444        4    -0.63506   16.38169    4.38181    8.35171
     227      444        4    -0.63506    4.98122    8.67171    2.04347
     228      444        4    -0.63506    3.12473   12.58478    7.94512
     229      444        4    -0.63506    3.35398    7.54717    3.17885
     230      444        4    -0.63506    4.88086   13.61987    6.92339
     231      444        4    -0.63506    1.10324    5.86866    1.64852
     232      444        4    -0.63506    3.23441   17.89728    7.95294
     233      444        4    -0.63506    4.97606    3.19085    2.05347
     234      444        4    -0.63506    4.91717   16.81830    6.86447
     235      444        4    -0.63506    3.40690    4.34729    3.23595
     236      444        4    -0.63506    7.11706   15.32442    8.47136
     237      444        4    -0.63506    4.98270    8.55564   17.06909
     238      444        4    -0.63506    3.29524   12.44994   11.13797
     239      444        4    -0.63506    3.34038    7.44578   15.94698
     240      444        4    -0.63506    4.86042   13.60675   12.32736
     241      444        4    -0.63506    1.09665    6.00162   17.56659
     242      444        4    -0.63506    3.23364   17.92929   11.13143
     243      444        4    -0.63506    5.03545    3.19953   17.04436
     244      444        4    -0.63506    4.85893   16.81016   12.27408
     245      444        4    -0.63506    3.29491    4.25106   16.01280
     246      444        4    -0.63506    7.12143   15.13669   10.74248
     247      444        5    -1.38211    4.16918    5.94991    0.50568
     248      444        4    -0.63506    7.24037    7.10384    0.33858
     249      444        4    -0.63506    7.24049    4.85005    0.68461
     250      444        5    -1.38211    4.05226   15.20417    9.59946
     251      444        4    -0.63506    0.98219   16.33882    9.40799
     252      444        4    -0.63506    0.98200   14.09757    9.82730
     253      444        1     1.19526   14.35531   12.50938   19.27057
     254      444        1     1.19526   12.15495    3.19891   25.17568
     255      444        1     1.19526   14.34338   12.45695   34.27019
     256      444        1     1.19526   12.15100    3.12634   28.35871
     257      444        1     1.19526   12.03302   10.82392   35.91089
     258      444        1     1.19526   12.02630   14.01068   35.85725
     259      444        1     1.19526   14.46652    1.56948   26.82384
     260      444        1     1.19526   14.47141    4.75546   26.76111
     261      444        1     1.19526    3.00548    5.79677   20.28594
     262      444        1     1.19526    5.19835   15.10715   26.19051
     263      444        1     1.19526    2.98984    5.75171   35.28047
     264      444        1     1.19526    5.19441   15.06141   29.37736
     265      444        1     1.19526    5.31503    7.40821   18.63978
     266      444        1     1.19526    5.32218    4.23927   18.69543
     267      444        1     1.19526    2.88094   16.66098   27.72993
     268      444        1     1.19526    2.87484   13.49598   27.79030
     269      444        2     0.11634    5.42646   10.65845   18.79689
     270      444        2     0.11634   15.01045    9.62132   22.25395
     271      444        2     0.11634   11.37158    8.02318   20.61961
     272      444        2     0.11634   11.40255    6.19435   22.32595
     273      444        2     0.11634   15.03375    7.79607   23.97738
     274      444        2     0.11634    1.11891   13.09406   33.83633
     275      444        2     0.11634    3.60215   13.12201   33.87088
     276      444        2     0.11634    3.56328   11.76835   19.73825
     277      444        2     0.11634    1.20358    1.32755   27.95286
     278      444        2     0.11634   11.67545    0.42683   22.11266
     279      444        2     0.11634   14.85929   17.02700   24.14595
     280      444        2     0.11634   14.81223   15.22458   22.41051
     281      444        2     0.11634   11.62635   17.26292   20.37413
     282      444        2     0.11634    8.04112    2.65213   28.87094
     283      444        2     0.11634    1.22545    4.96878   25.66427
     284      444        2     0.11634    3.71391    4.94079   25.63882
     285      444        2     0.11634    7.90704   10.63149   18.73216
     286      444        2     0.11634   14.91917    9.62859   31.28627
     287      444        2     0.11634   11.65973    7.61442   33.23318
     288      444        2     0.11634   11.72181    5.82343   31.48592
     289      444        2     0.11634   14.97413    7.83574   29.53064
     290      444        2     0.11634    1.07965   11.78971   19.70461
     291      444        2     0.11634    7.89408   14.28438   34.86588
     292      444        2     0.11634    5.40676   14.28001   34.85043
     293      444        2     0.11634    3.67923    1.34449   28.01904
     294      444        2     0.11634   11.48124    0.25558   31.35573
     295      444        2     0.11634   15.00352   17.16823   29.61138
     296      444        2     0.11634   14.95164   15.33855   31.31445
     297      444        2     0.11634   11.44126   17.07872   33.08117
     298      444        2     0.11634    7.98625    3.54021   24.66800
     299      444        2     0.11634    5.49652    3.55836   24.69873
     300      444        2     0.11634    5.55253    2.64158   28.91058
     301      444        2     0.11634   11.91535    7.59715   35.76124
     302      444        2     0.11634    2.45810    8.59595   23.28823
     303      444        2     0.11634    5.72324   10.60183   21.34277
     304      444        2     0.11634    5.65239   12.40231   23.08094
     305      444        2     0.11634    2.38863   10.40194   25.02985
     306      444        2     0.11634   16.26035    6.45748   34.83751
     307      444        2     0.11634   16.15338   16.91241   26.60527
     308      444        2     0.11634    5.84943   17.96886   23.17585
     309      444        2     0.11634    2.33893    1.06232   24.93729
     310      444        2     0.11634    2.38868    2.89390   23.23677
     311      444        2     0.11634    5.88896    1.14882   21.45533
     312      444        2     0.11634    9.36329   14.68488   29.87631
     313      444        2     0.11634   16.10884   13.26252   28.87822
     314      444        2     0.11634   13.62051   13.30114   28.89658
     315      444        2     0.11634    9.43384    7.61315   35.82343
     316      444        2     0.11634    2.32843    8.65388   32.32491
     317      444        2     0.11634    5.97374   10.25092   33.94688
     318      444        2     0.11634    5.94043   12.07511   32.23618
     319      444        2     0.11634    2.30474   10.47222   30.59620
     320      444        2     0.11634   16.23631    5.21675   20.72798
     321      444        2     0.11634   13.75260    5.17316   20.69816
     322      444        2     0.11634   13.77633    6.46678   34.80951
     323      444        2     0.11634    9.46233    3.96436   19.69752
     324      444        2     0.11634   11.95043    3.98201   19.71789
     325      444        2     0.11634   13.67775   16.90568   26.52999
     326      444        2     0.11634    5.68420   17.84587   32.42201
     327      444        2     0.11634    2.47783    1.22799   30.40636
     328      444        2     0.11634    2.52463    3.03026   32.14180
     329      444        2     0.11634    5.73298    1.00935   34.16000
     330      444        2     0.11634    9.30208   15.63746   25.68773
     331      444        2     0.11634   11.79040   15.64857   25.64245
     332      444        2     0.11634   11.85298   14.67016   29.84195
     333      444        3     0.71079   13.26123    5.78575   24.25523
     334      444        3    -0.08918    5.96464   11.48831   18.34194
     335      444        3    -0.05969   13.22472    6.88653   23.24677
     336      444        3    -0.05969   13.19264    8.92344   21.33495
     337      444        3     0.71079   13.19569    9.98828   20.28758
     338      444        3    -0.08918   14.22499    8.86803   22.28213
     339      444        3    -0.08918   12.16736    7.96679   21.35895
     340      444        3    -0.08918   12.18533    6.95076   22.30741
     341      444        3    -0.08918   14.23920    7.85633   23.23568
     342      444        3    -0.08918    1.66192   12.79124   34.73041
     343      444        3    -0.08918    3.05103   12.81240   34.75787
     344      444        3    -0.08918    3.03504   12.08491   18.83853
     345      444        3     0.71079   13.20021   15.07220   20.23866
     346      444        3    -0.08918    1.76008    2.13293   27.47481
     347      444        3    -0.05969   13.21696   16.13954   21.28949
     348      444        3    -0.05969   13.26855   18.15810   23.23131
     349      444        3     0.71079   13.30116    0.59996   24.26123
     350      444        3    -0.08918   12.35449   18.22475   22.16867
     351      444        3    -0.08918   14.15288   17.07143   23.31950
     352      444        3    -0.08918   14.12745   16.06910   22.35505
     353      444        3    -0.08918   12.32795   17.22226   21.20567
     354      444        3    -0.08918    7.47330    2.84137   27.96140
     355      444        3    -0.08918    1.77510    4.17266   26.16632
     356      444        3    -0.08918    3.16481    4.15412   26.15741
     357      444        3     0.71079   13.36152    5.67425   29.33972
     358      444        3    -0.08918    7.35442   11.46649   18.30284
     359      444        3    -0.05969   13.34995    6.72719   30.40455
     360      444        3    -0.05969   13.28756    8.72853   32.36346
     361      444        3     0.71079   13.24051    9.81405   33.39319
     362      444        3    -0.08918   14.22559    8.79018   31.32100
     363      444        3    -0.08918   12.38709    7.65330   32.42437
     364      444        3    -0.08918   12.41927    6.65861   31.45265
     365      444        3    -0.08918   14.25681    7.79648   30.34872
     366      444        3    -0.08918    1.64519   12.09654   18.82616
     367      444        3    -0.08918    7.34014   13.46024   35.31338
     368      444        3    -0.08918    5.95004   13.45359   35.30938
     369      444        3     0.71079   13.17083   15.01730   33.32482
     370      444        3    -0.08918    3.14995    2.14792   27.50954
     371      444        3    -0.05969   13.19261   16.10130   32.29673
     372      444        3    -0.05969   13.24338   18.14032   30.38327
     373      444        3     0.71079   13.26893    0.57639   29.35099
     374      444        3    -0.08918   12.23563   18.11806   31.35936
     375      444        3    -0.08918   14.22744   17.14093   30.37272
     376      444        3    -0.08918   14.19846   16.12392   31.31991
     377      444        3    -0.08918   12.21272   17.10690   32.31346
     378      444        3    -0.08918    7.44350    3.35588   25.59409
     379      444        3    -0.08918    6.05323    3.37442   25.61791
     380      444        3    -0.08918    6.08333    2.83360   27.97722
     381      444        3    -0.05969    8.05031   12.39464   35.88743
     382      444        3     0.71079   16.83321   12.40551   35.85325
     383      444        3     0.71079    9.53979   12.38835   35.86507
     384      444        3    -0.05969    5.23270   12.40814   35.92016