Created on Tue Feb 06 14:40:31 2018 

        1760 atoms
        2192 bonds
        3904 angles
        4384 dihedrals
        2688 impropers

           7 atom types
          12 bond types
          20 angle types
           4 dihedral types
           2 improper types
           0.000000  28.343999 xlo xhi
           0.000000  29.999994 ylo yhi
           0.000000  30.735954 zlo zhi
          -0.018326  -0.008046  -0.052041 xy xz yz

Masses

    1    65.380000000 # Zn3+2
    2     1.007940000 # H_
    3    12.010700000 # C_R
    4    12.010700000 # C_2
    5    14.006700000 # N_R
    6    15.999400000 # O_2
    7    15.999400000 # O_R

Bond Coeffs

    1      160.291409        1.840266  # Zn3+2 O_R
    2      165.837318        1.881712  # Zn3+2 N_R
    3      357.440381        1.081418  # H_ C_R
    4      602.435128        0.966432  # H_ O_2
    5      524.510762        1.012100  # H_ O_R
    6      389.261715        1.461000  # C_R C_2
    7      663.718927        1.345073  # C_R N_R
    8      462.655054        1.379256  # C_R C_R
    9      391.669513        1.458000  # C_R C_R
   10      599.390467        1.345574  # C_2 O_2
   11      805.258367        1.219455  # C_2 O_2
   12      646.680887        1.311940  # C_R O_R

Angle Coeffs

    1                      fourier       53.299639        0.343737        0.374972        0.281246 # O_R Zn3+2 N_R
    2                      fourier       55.784590        0.343737        0.374972        0.281246 # N_R Zn3+2 N_R
    3                      fourier       50.968023        0.343737        0.374972        0.281246 # O_R Zn3+2 O_R
    4              cosine/periodic      165.695700              -1               3 # N_R C_R C_R
    5              cosine/periodic      101.089243              -1               3 # C_2 C_R C_R
    6              cosine/periodic      142.860875              -1               3 # C_2 C_R N_R
    7              cosine/periodic      101.626578              -1               3 # C_R C_R C_R
    8              cosine/periodic      143.630586              -1               3 # C_R C_R N_R
    9              cosine/periodic      109.704024              -1               3 # H_ C_R N_R
   10              cosine/periodic      234.844275              -1               3 # N_R C_R N_R
   11              cosine/periodic      129.044183              -1               3 # C_R C_2 O_2
   12              cosine/periodic      162.089639              -1               3 # C_R C_2 O_2
   13              cosine/periodic      243.391726              -1               3 # O_2 C_2 O_2
   14              cosine/periodic      137.761490              -1               3 # O_R C_R C_R
   15              cosine/periodic      217.450257              -1               3 # O_R C_R O_R
   16              cosine/periodic       36.261492              -1               3 # C_R N_R Zn3+2
   17              cosine/periodic      132.654363              -1               3 # C_R N_R C_R
   18              cosine/periodic      104.547338              -1               3 # C_2 O_2 H_
   19              cosine/periodic       50.430477              -1               3 # C_R O_R Zn3+2
   20              cosine/periodic      127.194992              -1               3 # H_ O_R C_R

Dihedral Coeffs

    1        0.555556              -1               2 # N_R C_R C_2 O_2
    2        1.497136              -1               2 # C_2 C_R N_R Zn3+2
    3        0.833333              -1               2 # O_2 C_2 O_2 H_
    4        2.245703              -1               2 # C_R C_R O_R Zn3+2

Improper Coeffs

    1        2.000000        1.000000       -1.000000        0.000000               0 # C_2 C_R N_R C_R
    2       16.666667        1.000000       -1.000000        0.000000               0 # O_2 C_2 C_R O_2

Pair Coeffs

    1        0.124000        2.461553 # Zn3+2 Zn3+2
    2        0.044000        2.571134 # H_ H_
    3        0.105000        3.430851 # C_R C_R
    4        0.105000        3.430851 # C_2 C_2
    5        0.069000        3.260689 # N_R N_R
    6        0.060000        3.118146 # O_2 O_2
    7        0.060000        3.118146 # O_R O_R

Atoms

       1      444        1     0.95040    5.48550    4.55318    8.29582
       2      444        1     0.95328    5.29423   10.59114    8.70536
       3      444        1     0.94746    1.56737   12.05694    7.10285
       4      444        1     0.95261    1.79971    3.09232    6.65327
       5      444        1     0.94930    8.68271    2.93291    0.60642
       6      444        1     0.95370    8.86272   11.89309    1.02257
       7      444        1     0.94935   12.59184   10.40967   14.75856
       8      444        1     0.95225   12.36149    4.37009   14.33848
       9      444        1     0.95022    8.67354   10.42167    7.07036
      10      444        1     0.95345    8.86519    4.38332    6.66100
      11      444        1     0.94796   12.59834    2.91937    8.26158
      12      444        1     0.95335   12.36303   11.88195    8.70911
      13      444        1     0.95068    5.47727   12.04089   14.75834
      14      444        1     0.95234    5.29720    3.08112   14.34379
      15      444        1     0.94672    1.56676    4.56589    0.58011
      16      444        1     0.95401    1.79716   10.60369    1.02658
      17      444        1     1.15506   -0.00567    7.48657    7.68379
      18      444        1     1.15199    7.08879   14.98506    7.68124
      19      444        1     1.15254   -0.01214   14.97293   15.36787
      20      444        1     1.15123    7.08477    7.47321   15.36770
      21      444        2     0.10073    4.02324    4.00049   11.30919
      22      444        2     0.10176    6.28562    7.54347    9.09836
      23      444        2     0.36649    9.98504    2.72281   13.30858
      24      444        2     0.09695    3.06437   11.52113    4.07883
      25      444        2     0.10209    0.79285    0.04402    6.26731
      26      444        2     0.36697   11.28247   10.24983    2.05236
      27      444        2     0.10090   10.14759    3.48029    3.61902
      28      444        2     0.10297    7.87480   14.94107    1.41253
      29      444        2     0.36602    4.18001    4.70653    5.62805
      30      444        2     0.10076   11.11361   10.96220   11.75019
      31      444        2     0.10182   13.37785    7.42185   13.94555
      32      444        2     0.36594    2.90202   12.20370    9.73600
      33      444        2     0.10057   10.13933   10.97142    4.05512
      34      444        2     0.10200    7.87590    7.43220    6.26867
      35      444        2     0.36609    4.17744   12.25072    2.05651
      36      444        2     0.10010   11.10064    3.45139   11.28228
      37      444        2     0.10236   13.38160   14.92809    9.08512
      38      444        2     0.36618    2.88123    4.72622   13.31395
      39      444        2     0.10043    4.01288   11.48996   11.74989
      40      444        2     0.10176    6.28821    0.03321   13.95216
      41      444        2     0.36614    9.97989   10.26757    9.73687
      42      444        2     0.09687    3.06184    4.01799    3.58956
      43      444        2     0.10342    0.78101    7.55389    1.40343
      44      444        2     0.36547   11.28162    2.77568    5.63140
      45      444        3    -0.02722    7.11912    3.27815   11.89205
      46      444        3     0.03969    7.14333    3.67339   10.54649
      47      444        3     0.27040    5.09386    3.82462   11.30719
      48      444        4     0.62690    8.12053    2.87709   12.86105
      49      444        3     0.61926    8.19204    3.71154    9.48083
      50      444        3    -0.00262    3.43334    6.87097    7.75161
      51      444        3    -0.00993    3.37525    8.26239    7.92173
      52      444        3     0.23182    5.29211    7.54853    8.66050
      53      444        3     0.66746    2.48919    5.91316    7.14098
      54      444        3     0.64922    2.34675    9.25946    7.55241
      55      444        3    -0.03656   -0.00751   10.79494    3.48126
      56      444        3     0.04292   -0.00810   11.18524    4.82902
      57      444        3     0.25913    1.99422   11.34351    4.07588
      58      444        4     0.62707   13.14772   10.39683    2.50690
      59      444        3     0.61112   13.06768   11.21642    5.89442
      60      444        3    -0.00385    3.63898   14.37200    7.60750
      61      444        3    -0.01073    3.70845    0.76277    7.43137
      62      444        3     0.23232    1.78751    0.04867    6.70250
      63      444        3     0.66866    4.58187   13.41431    8.21959
      64      444        3     0.64976    4.73036    1.76689    7.79708
      65      444        3    -0.02757    7.04836    4.17947    4.21150
      66      444        3     0.03821    7.02465    3.79399    2.86415
      67      444        3     0.26977    9.07603    3.64998    3.62014
      68      444        4     0.62696    6.04386    4.57037    5.18068
      69      444        3     0.61908    5.97301    3.76448    1.80251
      70      444        3    -0.01524   10.73629    0.61230    0.00000
      71      444        3    -0.00100   10.78636   14.22103    0.23856
      72      444        3     0.23592    8.86847   14.93559    0.97499
      73      444        3     0.67425   11.67550    1.54483   14.82311
      74      444        3     0.64494   11.80904   13.19661   15.23507
      75      444        3    -0.02480    0.03611   11.67850   11.15548
      76      444        3     0.03794    0.06542   11.27865   12.49876
      77      444        3     0.27022   12.18456   11.13571   11.74734
      78      444        3     0.62766    1.03989   12.08383   10.19198
      79      444        3     0.62001    1.12080   11.24528   13.55781
      80      444        3    -0.00163   10.52717    8.09319   15.29613
      81      444        3    -0.01215   10.46579    6.70238   15.11819
      82      444        3     0.23255   12.38469    7.41677   14.38407
      83      444        3     0.66580    9.58769    9.07525    0.54151
      84      444        3     0.64894    9.44857    5.72223    0.11555
      85      444        3    -0.02657    7.04332   11.69340    3.47219
      86      444        3     0.03935    7.01933   11.29730    4.81709
      87      444        3     0.27087    9.06871   11.14711    4.05748
      88      444        4     0.62732    6.04123   12.09611    2.50433
      89      444        3     0.61811    5.96811   11.26002    5.87916
      90      444        3    -0.00396   10.72776    8.10387    7.61695
      91      444        3    -0.01015   10.78544    6.71230    7.44657
      92      444        3     0.23138    8.86921    7.42683    6.70705
      93      444        3     0.66812   11.67277    9.06119    8.22731
      94      444        3     0.64929   11.81338    5.71465    7.81600
      95      444        3    -0.02817    0.01861    4.17965   11.88443
      96      444        3     0.03844    0.05060    3.78874   10.53751
      97      444        3     0.27031   12.17070    3.63001   11.28693
      98      444        3     0.62818    1.01490    4.57796   12.85780
      99      444        3     0.61819    1.10385    3.75762    9.47672
     100      444        3    -0.00285   10.53747    0.60282    7.74126
     101      444        3    -0.01164   10.46576   14.21230    7.91884
     102      444        3     0.23325   12.38717   14.92478    8.64947
     103      444        3     0.66761    9.59238    1.56269    7.13607
     104      444        3     0.64705    9.44267   13.20908    7.55285
     105      444        3    -0.02817    7.11206   10.79485   11.15388
     106      444        3     0.03929    7.13648   11.18004   12.50130
     107      444        3     0.27039    5.08449   11.32161   11.74725
     108      444        4     0.62809    8.11603   10.40453   10.18451
     109      444        3     0.61963    8.18912   11.21016   13.56169
     110      444        3    -0.00400    3.42682   14.36094   15.29874
     111      444        3    -0.00968    3.37651    0.75182   15.12644
     112      444        3     0.23265    5.29450    0.03829   14.38956
     113      444        3     0.66734    2.48815   13.42801    0.54146
     114      444        3     0.64834    2.35284    1.77523    0.12865
     115      444        3    -0.03988   -0.00312    3.30358    4.20073
     116      444        3     0.04587   -0.00301    3.69929    2.85646
     117      444        3     0.25353    1.99090    3.84459    3.59790
     118      444        4     0.62529   13.14585    2.90501    5.17168
     119      444        3     0.60828   13.04512    3.72987    1.80411
     120      444        3    -0.01374    3.63770    6.88276    0.00000
     121      444        3    -0.00190    3.69974    8.27285    0.24704
     122      444        3     0.23595    1.77636    7.55888    0.96989
     123      444        3     0.67221    4.57798    5.90046   14.82347
     124      444        3     0.64706    4.71876    9.25223   15.25356
     125      444        5    -0.41119    5.81297    3.38027   12.35289
     126      444        5    -0.40640    5.85871    4.01855   10.21093
     127      444        5    -0.38159    4.66164    6.43812    8.22711
     128      444        5    -0.38274    4.56850    8.67169    8.48756
     129      444        5    -0.40399    1.28004   10.90142    3.02509
     130      444        5    -0.38892    1.22560   11.53188    5.17026
     131      444        5    -0.37958    2.40844   13.93994    7.13867
     132      444        5    -0.38244    2.51336    1.17137    6.86898
     133      444        5    -0.41097    8.35548    4.08354    4.66982
     134      444        5    -0.40427    8.31065    3.45912    2.52347
     135      444        5    -0.38568    9.50753    1.04534    0.53934
     136      444        5    -0.38273    9.59282   13.81245    0.80462
     137      444        5    -0.41256   12.89957   11.58309   10.69923
     138      444        5    -0.40576   12.95387   10.93630   12.83967
     139      444        5    -0.38245   11.75677    8.52595   14.82433
     140      444        5    -0.38168   11.65835    6.29495   14.55075
     141      444        5    -0.41148    8.34960   11.59194    3.01185
     142      444        5    -0.40596    8.30361   10.95233    5.15350
     143      444        5    -0.38162    9.49974    8.53708    7.14093
     144      444        5    -0.38141    9.59238    6.30338    6.88007
     145      444        5    -0.41191   12.88231    4.07301   12.33887
     146      444        5    -0.40361   12.94167    3.44133   10.19373
     147      444        5    -0.38016   11.76781    1.03392    8.21086
     148      444        5    -0.38324   11.65917   13.80344    8.48417
     149      444        5    -0.41090    5.80440   10.88956   10.69665
     150      444        5    -0.40581    5.85069   11.51319   12.84306
     151      444        5    -0.38224    4.65555   13.92830   14.82469
     152      444        5    -0.38266    4.56979    1.16111   14.56036
     153      444        5    -0.40041    1.28138    3.39997    4.65109
     154      444        5    -0.38540    1.21619    4.04149    2.50805
     155      444        5    -0.38518    2.40537    6.45026    0.53056
     156      444        5    -0.38312    2.50452    8.68057    0.80909
     157      444        6    -0.55991    7.75148    2.48952   13.99880
     158      444        6    -0.45733    9.38494    2.96643   12.51709
     159      444        7    -0.52680    9.32838    3.25892    9.63651
     160      444        7    -0.62989    7.74268    4.25979    8.36325
     161      444        7    -0.56867    2.99674    4.84751    6.63949
     162      444        7    -0.61131    1.23176    6.07658    7.11731
     163      444        7    -0.61853    1.22089    8.91691    7.06157
     164      444        7    -0.55848    2.67216   10.47477    7.74352
     165      444        6    -0.56127   13.52155   10.01494    1.36824
     166      444        6    -0.45821   11.88170   10.48298    2.84736
     167      444        7    -0.52297   11.93031   10.76798    5.73634
     168      444        7    -0.62965   13.51663   11.75494    7.01957
     169      444        7    -0.57039    4.07590   12.34428    8.71346
     170      444        7    -0.61306    5.83867   13.58360    8.25197
     171      444        7    -0.61660    5.87420    1.44261    8.25595
     172      444        7    -0.55932    4.37918    2.98044    7.63496
     173      444        6    -0.56019    6.40936    4.97669    6.31284
     174      444        6    -0.45545    4.78025    4.45001    4.84162
     175      444        7    -0.52645    4.83810    4.21759    1.96815
     176      444        7    -0.63038    6.41964    3.22590    0.67939
     177      444        7    -0.56999   11.16711    2.60959   14.32011
     178      444        7    -0.61118   12.93317    1.38356   14.80114
     179      444        7    -0.61640   12.93681   13.53618   14.74660
     180      444        7    -0.55660   11.48521   12.00706    0.05287
     181      444        7    -0.56075    0.67643   12.52102    9.07084
     182      444        7    -0.45678    2.30389   11.94185   10.52247
     183      444        7    -0.52821    2.25555   11.69800   13.38728
     184      444        7    -0.62975    0.67823   10.70464   14.68174
     185      444        7    -0.56892   10.09026   10.14335    1.04175
     186      444        7    -0.61111    8.33134    8.90482    0.56835
     187      444        7    -0.61549    8.30780    6.04641    0.58200
     188      444        7    -0.55840    9.78986    4.48241   15.31336
     189      444        6    -0.56082    6.40971   12.48475    1.36683
     190      444        6    -0.45565    4.77685   12.00747    2.84858
     191      444        7    -0.52497    4.83200   11.70991    5.71406
     192      444        7    -0.63010    6.41495   10.71658    7.00050
     193      444        7    -0.56952   11.16678   10.12786    8.72880
     194      444        7    -0.61118   12.92985    8.89658    8.25130
     195      444        7    -0.61848   12.93966    6.05640    8.30631
     196      444        7    -0.55811   11.48728    4.49937    7.62550
     197      444        7    -0.56118    0.63853    4.96113   13.99583
     198      444        7    -0.45688    2.28097    4.49127   12.51991
     199      444        7    -0.52670    2.24029    4.20709    9.64075
     200      444        7    -0.62902    0.65839    3.21861    8.35191
     201      444        7    -0.56865   10.09279    2.63350    6.63986
     202      444        7    -0.61156    8.33574    1.39371    7.11456
     203      444        7    -0.61560    8.30756   13.53738    7.07459
     204      444        7    -0.55899    9.78260   11.99506    7.73324
     205      444        6    -0.56004    7.75002    9.99963    9.05183
     206      444        6    -0.45736    9.37983   10.52334   10.52368
     207      444        7    -0.52797    9.32401   10.75814   13.39247
     208      444        7    -0.63023    7.74288   11.74751   14.68562
     209      444        7    -0.56895    2.99787   12.36275    1.04189
     210      444        7    -0.61040    1.23044   13.58944    0.56582
     211      444        7    -0.61761    1.22600    1.43498    0.61861
     212      444        7    -0.55724    2.67566    2.96453   15.30740
     213      444        6    -0.56034   13.51888    2.48607    6.29760
     214      444        6    -0.45541   11.88034    3.03263    4.84389
     215      444        7    -0.52375   11.91174    3.27568    1.97984
     216      444        7    -0.62864   13.48130    4.27079    0.67800
     217      444        7    -0.56990    4.07410    4.83255   14.32226
     218      444        7    -0.61286    5.83448    6.06977   14.79922
     219      444        7    -0.61488    5.86243    8.92902   14.79340
     220      444        7    -0.55852    4.37382   10.49161    0.05219
     221      444        1     0.95040    5.48147    4.52716   23.66380
     222      444        1     0.95328    5.29021   10.56512   24.07334
     223      444        1     0.94746    1.56335   12.03092   22.47083
     224      444        1     0.95261    1.79568    3.06630   22.02125
     225      444        1     0.94930    8.67868    2.90689   15.97440
     226      444        1     0.95370    8.85870   11.86707   16.39055
     227      444        1     0.94935   12.58782   10.38365   30.12654
     228      444        1     0.95225   12.35747    4.34407   29.70645
     229      444        1     0.95022    8.66952   10.39565   22.43834
     230      444        1     0.95345    8.86117    4.35730   22.02898
     231      444        1     0.94796   12.59432    2.89335   23.62956
     232      444        1     0.95335   12.35901   11.85593   24.07709
     233      444        1     0.95068    5.47325   12.01487   30.12632
     234      444        1     0.95234    5.29318    3.05510   29.71177
     235      444        1     0.94672    1.56274    4.53987   15.94809
     236      444        1     0.95401    1.79314   10.57767   16.39456
     237      444        1     1.15506   -0.00969    7.46055   23.05177
     238      444        1     1.15199    7.08476   14.95904   23.04921
     239      444        1     1.15254   -0.01616   14.94691   30.73585
     240      444        1     1.15123    7.08074    7.44719   30.73568
     241      444        2     0.10073    4.01922    3.97447   26.67716
     242      444        2     0.10176    6.28160    7.51745   24.46634
     243      444        2     0.36649    9.98101    2.69679   28.67655
     244      444        2     0.09695    3.06034   11.49511   19.44681
     245      444        2     0.10209    0.78883    0.01800   21.63528
     246      444        2     0.36697   11.27845   10.22381   17.42034
     247      444        2     0.10090   10.14357    3.45427   18.98700
     248      444        2     0.10297    7.87077   14.91505   16.78051
     249      444        2     0.36602    4.17599    4.68051   20.99602
     250      444        2     0.10076   11.10958   10.93618   27.11816
     251      444        2     0.10182   13.37383    7.39583   29.31352
     252      444        2     0.36594    2.89800   12.17768   25.10397
     253      444        2     0.10057   10.13530   10.94540   19.42309
     254      444        2     0.10200    7.87187    7.40618   21.63665
     255      444        2     0.36609    4.17341   12.22470   17.42449
     256      444        2     0.10010   11.09662    3.42537   26.65025
     257      444        2     0.10236   13.37758   14.90207   24.45309
     258      444        2     0.36618    2.87721    4.70020   28.68193
     259      444        2     0.10043    4.00886   11.46394   27.11787
     260      444        2     0.10176    6.28419    0.00719   29.32013
     261      444        2     0.36614    9.97587   10.24155   25.10485
     262      444        2     0.09687    3.05781    3.99197   18.95754
     263      444        2     0.10342    0.77699    7.52787   16.77141
     264      444        2     0.36547   11.27760    2.74966   20.99937
     265      444        3    -0.02722    7.11510    3.25213   27.26002
     266      444        3     0.03969    7.13930    3.64737   25.91447
     267      444        3     0.27040    5.08984    3.79860   26.67517
     268      444        4     0.62690    8.11651    2.85107   28.22902
     269      444        3     0.61926    8.18802    3.68552   24.84880
     270      444        3    -0.00262    3.42932    6.84495   23.11958
     271      444        3    -0.00993    3.37122    8.23637   23.28971
     272      444        3     0.23182    5.28809    7.52251   24.02848
     273      444        3     0.66746    2.48517    5.88714   22.50895
     274      444        3     0.64922    2.34273    9.23344   22.92038
     275      444        3    -0.03656   -0.01153   10.76892   18.84924
     276      444        3     0.04292   -0.01212   11.15922   20.19699
     277      444        3     0.25913    1.99020   11.31749   19.44386
     278      444        4     0.62707   13.14370   10.37081   17.87488
     279      444        3     0.61112   13.06366   11.19040   21.26240
     280      444        3    -0.00385    3.63496   14.34598   22.97548
     281      444        3    -0.01073    3.70443    0.73675   22.79935
     282      444        3     0.23232    1.78349    0.02265   22.07047
     283      444        3     0.66866    4.57785   13.38828   23.58757
     284      444        3     0.64976    4.72634    1.74087   23.16506
     285      444        3    -0.02757    7.04433    4.15345   19.57948
     286      444        3     0.03821    7.02063    3.76797   18.23212
     287      444        3     0.26977    9.07200    3.62396   18.98812
     288      444        4     0.62696    6.03984    4.54435   20.54866
     289      444        3     0.61908    5.96898    3.73846   17.17049
     290      444        3    -0.01524   10.73227    0.58628   15.36798
     291      444        3    -0.00100   10.78234   14.19501   15.60653
     292      444        3     0.23592    8.86445   14.90957   16.34297
     293      444        3     0.67425   11.67147    1.51881   30.19108
     294      444        3     0.64494   11.80502   13.17059   30.60305
     295      444        3    -0.02480    0.03208   11.65248   26.52345
     296      444        3     0.03794    0.06140   11.25263   27.86674
     297      444        3     0.27022   12.18054   11.10969   27.11532
     298      444        3     0.62766    1.03586   12.05781   25.55996
     299      444        3     0.62001    1.11678   11.21926   28.92579
     300      444        3    -0.00163   10.52314    8.06717   30.66411
     301      444        3    -0.01215   10.46177    6.67636   30.48616
     302      444        3     0.23255   12.38067    7.39075   29.75205
     303      444        3     0.66580    9.58367    9.04923   15.90948
     304      444        3     0.64894    9.44455    5.69621   15.48353
     305      444        3    -0.02657    7.03930   11.66738   18.84017
     306      444        3     0.03935    7.01531   11.27128   20.18507
     307      444        3     0.27087    9.06469   11.12109   19.42546
     308      444        4     0.62732    6.03721   12.07009   17.87231
     309      444        3     0.61811    5.96408   11.23400   21.24713
     310      444        3    -0.00396   10.72373    8.07785   22.98493
     311      444        3    -0.01015   10.78142    6.68628   22.81455
     312      444        3     0.23138    8.86519    7.40081   22.07502
     313      444        3     0.66812   11.66874    9.03517   23.59528
     314      444        3     0.64929   11.80936    5.68863   23.18398
     315      444        3    -0.02817    0.01459    4.15363   27.25240
     316      444        3     0.03844    0.04657    3.76272   25.90549
     317      444        3     0.27031   12.16668    3.60399   26.65491
     318      444        3     0.62818    1.01088    4.55194   28.22578
     319      444        3     0.61819    1.09982    3.73160   24.84470
     320      444        3    -0.00285   10.53345    0.57680   23.10924
     321      444        3    -0.01164   10.46174   14.18628   23.28682
     322      444        3     0.23325   12.38314   14.89876   24.01744
     323      444        3     0.66761    9.58836    1.53667   22.50405
     324      444        3     0.64705    9.43865   13.18306   22.92083
     325      444        3    -0.02817    7.10804   10.76883   26.52185
     326      444        3     0.03929    7.13246   11.15402   27.86927
     327      444        3     0.27039    5.08047   11.29559   27.11523
     328      444        4     0.62809    8.11201   10.37851   25.55249
     329      444        3     0.61963    8.18510   11.18414   28.92966
     330      444        3    -0.00400    3.42280   14.33492   30.66672
     331      444        3    -0.00968    3.37249    0.72580   30.49442
     332      444        3     0.23265    5.29047    0.01227   29.75754
     333      444        3     0.66734    2.48413   13.40199   15.90944
     334      444        3     0.64834    2.34881    1.74921   15.49662
     335      444        3    -0.03988   -0.00715    3.27756   19.56871
     336      444        3     0.04587   -0.00703    3.67327   18.22444
     337      444        3     0.25353    1.98688    3.81857   18.96588
     338      444        4     0.62529   13.14182    2.87899   20.53965
     339      444        3     0.60828   13.04110    3.70385   17.17209
     340      444        3    -0.01374    3.63368    6.85674   15.36798
     341      444        3    -0.00190    3.69572    8.24682   15.61502
     342      444        3     0.23595    1.77234    7.53286   16.33787
     343      444        3     0.67221    4.57395    5.87443   30.19145
     344      444        3     0.64706    4.71473    9.22621   30.62154
     345      444        5    -0.41119    5.80895    3.35425   27.72086
     346      444        5    -0.40640    5.85469    3.99253   25.57891
     347      444        5    -0.38159    4.65761    6.41210   23.59509
     348      444        5    -0.38274    4.56447    8.64567   23.85554
     349      444        5    -0.40399    1.27602   10.87540   18.39307
     350      444        5    -0.38892    1.22157   11.50586   20.53824
     351      444        5    -0.37958    2.40442   13.91392   22.50665
     352      444        5    -0.38244    2.50934    1.14535   22.23696
     353      444        5    -0.41097    8.35145    4.05752   20.03780
     354      444        5    -0.40427    8.30662    3.43310   17.89144
     355      444        5    -0.38568    9.50350    1.01932   15.90732
     356      444        5    -0.38273    9.58880   13.78643   16.17260
     357      444        5    -0.41256   12.89555   11.55707   26.06721
     358      444        5    -0.40576   12.94984   10.91028   28.20765