Created on Tue Feb 06 14:55:03 2018 

        2160 atoms
        2736 bonds
        6192 angles
        5904 dihedrals
         864 impropers

           6 atom types
           8 bond types
          15 angle types
           5 dihedral types
           1 improper types
           0.000000  28.603500 xlo xhi
           0.000000  33.238493 ylo yhi
           0.000000  34.118000 zlo zhi
          -0.022046   0.000000   0.000000 xy xz yz

Masses

    1    40.078000000 # Ca6+2
    2     1.007940000 # H_
    3    12.010700000 # C_R
    4    12.010700000 # C_3
    5    15.999400000 # O_R
    6    15.999400000 # O_3_z

Bond Coeffs

    1      133.916156        2.302728  # Ca6+2 O_R
    2      160.511910        2.167794  # Ca6+2 O_3_z
    3      331.069389        1.109401  # H_ C_3
    4      850.878848        0.861362  # H_ O_3_z
    5      646.680887        1.311940  # C_R O_R
    6      369.943935        1.486000  # C_R C_3
    7      349.795899        1.514000  # C_3 C_3
    8      720.012703        1.265797  # C_3 O_3_z

Angle Coeffs

    1              cosine/periodic       33.313376               1               4 # O_R Ca6+2 O_3_z
    2              cosine/periodic       28.776304               1               4 # O_R Ca6+2 O_R
    3              cosine/periodic       38.918745               1               4 # O_3_z Ca6+2 O_3_z
    4              cosine/periodic      130.962624              -1               3 # O_R C_R C_3
    5              cosine/periodic      217.450257              -1               3 # O_R C_R O_R
    6                      fourier       69.847816        0.343737        0.374972        0.281246 # H_ C_3 C_3
    7                      fourier      171.211471        0.343737        0.374972        0.281246 # C_3 C_3 O_3_z
    8                      fourier      140.430538        0.343737        0.374972        0.281246 # H_ C_3 O_3_z
    9                      fourier       97.888497        0.343737        0.374972        0.281246 # C_3 C_3 C_R
   10                      fourier      180.345994        0.343737        0.374972        0.281246 # O_3_z C_3 C_R
   11                      fourier       73.868412        0.343737        0.374972        0.281246 # H_ C_3 C_R
   12              cosine/periodic       40.137065              -1               3 # Ca6+2 O_R C_R
   13                      fourier       22.478509        1.898490        2.651251        0.799497 # Ca6+2 O_3_z H_
   14                      fourier       29.553347        1.898490        2.651251        0.799497 # Ca6+2 O_3_z C_3
   15                      fourier      105.399902        1.898490        2.651251        0.799497 # C_3 O_3_z H_

Dihedral Coeffs

    1        2.245703              -1               2 # O_R C_R O_R Ca6+2
    2        0.083333               1               3 # O_R C_R C_3 C_3
    3        0.066219               1               3 # H_ C_3 C_3 O_3_z
    4        0.085777               1               2 # H_ C_3 O_3_z H_
    5        0.416667              -1               2 # H_ C_3 C_R O_R

Improper Coeffs

    1        2.000000        1.000000       -1.000000        0.000000               0 # C_3 C_R O_R O_R

Pair Coeffs

    1        0.238000        3.028165 # Ca6+2 Ca6+2
    2        0.044000        2.571134 # H_ H_
    3        0.105000        3.430851 # C_R C_R
    4        0.105000        3.430851 # C_3 C_3
    5        0.060000        3.118146 # O_R O_R
    6        0.060000        3.118146 # O_3_z O_3_z

Atoms

       1      444        1     1.52813    3.18196    3.86920   10.46331
       2      444        1     1.55730    3.18196    3.86920    1.93357
       3      444        1     1.53325    1.56638    7.19155   14.72775
       4      444        1     1.52959    1.56638    7.19155    6.19801
       5      444        1     1.53020    6.33641    9.42048   10.85979
       6      444        1     1.52757    6.33641    9.42048    2.33005
       7      444        1     1.49608    7.95210    1.66228   15.12523
       8      444        1     1.53087    7.95210    1.66228    6.59549
       9      444        2     0.09843    7.29327    3.73228   10.45875
      10      444        2     0.07482    7.29327    3.73228    1.92901
      11      444        2     0.09635    7.82617    1.51532    9.79454
      12      444        2     0.08070    7.82617    1.51532    1.26481
      13      444        2     0.40292    5.80057    3.15132   12.12385
      14      444        2     0.37895    5.80057    3.15132    3.59411
      15      444        2     0.36602    6.07186    0.45885    9.06904
      16      444        2     0.36035    6.07186    0.45885    0.53930
      17      444        2     0.09588    6.97728    7.34043   14.70651
      18      444        2     0.09971    6.97728    7.34043    6.17677
      19      444        2     0.09605    6.46964    9.56114   14.06446
      20      444        2     0.09678    6.46964    9.56114    5.53472
      21      444        2     0.41135    8.47157    7.88889   16.38575
      22      444        2     0.40847    8.47157    7.88889    7.85601
      23      444        2     0.36317    8.22055   10.60900   13.33439
      24      444        2     0.36520    8.22055   10.60900    4.80465
      25      444        2     0.09886    2.22705    9.26106   10.86448
      26      444        2     0.09734    2.22705    9.26106    2.33475
      27      444        2     0.09429    1.69968    7.04481   11.52586
      28      444        2     0.09511    1.69968    7.04481    2.99612
      29      444        2     0.41260    3.72343    8.68551    9.19908
      30      444        2     0.40897    3.72343    8.68551    0.66933
      31      444        2     0.36332    3.44908    5.99022   12.25507
      32      444        2     0.36494    3.44908    5.99022    3.72533
      33      444        2     0.09744    2.54410    1.79641   15.14379
      34      444        2     0.10041    2.54410    1.79641    6.61405
      35      444        2     0.09446    3.04956    4.01847   15.79118
      36      444        2     0.09410    3.04956    4.01847    7.26144
      37      444        2     0.41336    1.04916    2.34697   13.46585
      38      444        2     0.41145    1.04916    2.34697    4.93611
      39      444        2     0.36679    1.29007    5.06029   16.51777
      40      444        2     0.36347    1.29007    5.06029    7.98803
      41      444        3     0.72066    5.90850    3.34601    8.86207
      42      444        3     0.88326    5.90850    3.34601    0.33233
      43      444        4     0.04740    6.43525    3.05856   10.28704
      44      444        4     0.02771    6.43525    3.05856    1.75730
      45      444        4     0.01325    6.92574    1.61934   10.42742
      46      444        4     0.03222    6.92574    1.61934    1.89768
      47      444        3     0.71615    7.36762    1.22592   11.83930
      48      444        3     0.70589    7.36762    1.22592    3.30957
      49      444        3     0.71971    8.37824    7.72695   13.12281
      50      444        3     0.72372    8.37824    7.72695    4.59307
      51      444        4     0.04643    7.84561    8.00376   14.54725
      52      444        4     0.04696    7.84561    8.00376    6.01751
      53      444        4     0.01432    7.37151    9.44897   14.69411
      54      444        4     0.01546    7.37151    9.44897    6.16437
      55      444        3     0.70367    6.93682    9.84648   16.10718
      56      444        3     0.70085    6.93682    9.84648    7.57744
      57      444        3     0.72460    3.61303    8.87907   12.46134
      58      444        3     0.72342    3.61303    8.87907    3.93160
      59      444        4     0.04534    3.08745    8.59027   11.03565
      60      444        4     0.04845    3.08745    8.59027    2.50592
      61      444        4     0.01616    2.60079    7.14940   10.89403
      62      444        4     0.01205    2.60079    7.14940    2.36429
      63      444        3     0.70284    2.16058    6.75247    9.48211
      64      444        3     0.70920    2.16058    6.75247    0.95237
      65      444        3     0.71910    1.14355    2.18248   16.72823
      66      444        3     0.72599    1.14355    2.18248    8.19849
      67      444        4     0.04705    1.67594    2.45963   15.30411
      68      444        4     0.04478    1.67594    2.45963    6.77437
      69      444        4     0.01476    2.14948    3.90508   15.15919
      70      444        4     0.01652    2.14948    3.90508    6.62945
      71      444        3     0.69810    2.58689    4.30277   13.74746
      72      444        3     0.70379    2.58689    4.30277    5.21772
      73      444        5    -0.67408    4.75881    3.86304    8.75951
      74      444        5    -0.84851    4.75881    3.86304    0.22977
      75      444        5    -0.72423    6.67689    3.05061    7.89905
      76      444        5    -0.58813    6.67689    3.05061    0.00000
      77      444        6    -0.62322    5.39896    3.35099   11.24780
      78      444        6    -0.66278    5.39896    3.35099    2.71806
      79      444        6    -0.61449    5.92341    0.65763   10.05403
      80      444        6    -0.61765    5.92341    0.65763    1.52429
      81      444        5    -0.69873    7.35782    2.06081   12.79454
      82      444        5    -0.68052    7.35782    2.06081    4.26480
      83      444        5    -0.65712    7.68188   11.07932   11.94193
      84      444        5    -0.67118    7.68188   11.07932    3.41219
      85      444        5    -0.67472    9.52970    7.21386   13.02156
      86      444        5    -0.67505    9.52970    7.21386    4.49182
      87      444        5    -0.72833    7.61386    8.02980   12.15899
      88      444        5    -0.72993    7.61386    8.02980    3.62925
      89      444        6    -0.62549    8.87211    7.68407   15.51023
      90      444        6    -0.62501    8.87211    7.68407    6.98049
      91      444        6    -0.60640    8.37972   10.40265   14.31506
      92      444        6    -0.61306    8.37972   10.40265    5.78532
      93      444        5    -0.67773    6.93670    9.01049    8.53141
      94      444        5    -0.66241    6.93670    9.01049    0.00167
      95      444        5    -0.67449    6.58870    0.00368   16.20194
      96      444        5    -0.66344    6.58870    0.00368    7.67220
      97      444        5    -0.67998    4.76050    9.40162   12.56360
      98      444        5    -0.67445    4.76050    9.40162    4.03386
      99      444        5    -0.73131    2.84602    8.58032   13.42438
     100      444        5    -0.73156    2.84602    8.58032    4.89464
     101      444        6    -0.62582    4.12291    8.88864   10.07537
     102      444        6    -0.62663    4.12291    8.88864    1.54563
     103      444        6    -0.61361    3.60314    6.18865   11.27112
     104      444        6    -0.60849    3.60314    6.18865    2.74138
     105      444        5    -0.68742    2.17229    7.58443   17.05436
     106      444        5    -0.67820    2.17229    7.58443    8.52462
     107      444        5    -0.66087    1.81428    5.52331    9.38613
     108      444        5    -0.66373    1.81428    5.52331    0.85640
     109      444        5    -0.67256    9.52527    1.67303   16.83055
     110      444        5    -0.67908    9.52527    1.67303    8.30081
     111      444        5    -0.71724    1.90983    2.48258    0.63224
     112      444        5    -0.73627    1.90983    2.48258    9.16150
     113      444        6    -0.62877    0.64877    2.14240   14.34135
     114      444        6    -0.62346    0.64877    2.14240    5.81161
     115      444        6    -0.62175    1.13878    4.85725   15.53466
     116      444        6    -0.61233    1.13878    4.85725    7.00492
     117      444        5    -0.67932    2.58853    3.46735   12.79323
     118      444        5    -0.67904    2.58853    3.46735    4.26349
     119      444        5    -0.66234    2.91852    5.53636   13.64882
     120      444        5    -0.66390    2.91852    5.53636    5.11908
     121      444        1     1.52813    3.18196    3.86920   27.52231
     122      444        1     1.55730    3.18196    3.86920   18.99257
     123      444        1     1.53325    1.56638    7.19155   31.78675
     124      444        1     1.52959    1.56638    7.19155   23.25701
     125      444        1     1.53020    6.33641    9.42048   27.91879
     126      444        1     1.52757    6.33641    9.42048   19.38905
     127      444        1     1.49608    7.95210    1.66228   32.18423
     128      444        1     1.53087    7.95210    1.66228   23.65449
     129      444        2     0.09843    7.29327    3.73228   27.51775
     130      444        2     0.07482    7.29327    3.73228   18.98801
     131      444        2     0.09635    7.82617    1.51532   26.85354
     132      444        2     0.08070    7.82617    1.51532   18.32381
     133      444        2     0.40292    5.80057    3.15132   29.18285
     134      444        2     0.37895    5.80057    3.15132   20.65311
     135      444        2     0.36602    6.07186    0.45885   26.12804
     136      444        2     0.36035    6.07186    0.45885   17.59830
     137      444        2     0.09588    6.97728    7.34043   31.76551
     138      444        2     0.09971    6.97728    7.34043   23.23577
     139      444        2     0.09605    6.46964    9.56114   31.12346
     140      444        2     0.09678    6.46964    9.56114   22.59372
     141      444        2     0.41135    8.47157    7.88889   33.44475
     142      444        2     0.40847    8.47157    7.88889   24.91501
     143      444        2     0.36317    8.22055   10.60900   30.39339
     144      444        2     0.36520    8.22055   10.60900   21.86365
     145      444        2     0.09886    2.22705    9.26106   27.92348
     146      444        2     0.09734    2.22705    9.26106   19.39375
     147      444        2     0.09429    1.69968    7.04481   28.58486
     148      444        2     0.09511    1.69968    7.04481   20.05512
     149      444        2     0.41260    3.72343    8.68551   26.25808
     150      444        2     0.40897    3.72343    8.68551   17.72833
     151      444        2     0.36332    3.44908    5.99022   29.31407
     152      444        2     0.36494    3.44908    5.99022   20.78433
     153      444        2     0.09744    2.54410    1.79641   32.20279
     154      444        2     0.10041    2.54410    1.79641   23.67305
     155      444        2     0.09446    3.04956    4.01847   32.85018
     156      444        2     0.09410    3.04956    4.01847   24.32044
     157      444        2     0.41336    1.04916    2.34697   30.52485
     158      444        2     0.41145    1.04916    2.34697   21.99511
     159      444        2     0.36679    1.29007    5.06029   33.57677
     160      444        2     0.36347    1.29007    5.06029   25.04703
     161      444        3     0.72066    5.90850    3.34601   25.92107
     162      444        3     0.88326    5.90850    3.34601   17.39133
     163      444        4     0.04740    6.43525    3.05856   27.34604
     164      444        4     0.02771    6.43525    3.05856   18.81630
     165      444        4     0.01325    6.92574    1.61934   27.48642
     166      444        4     0.03222    6.92574    1.61934   18.95668
     167      444        3     0.71615    7.36762    1.22592   28.89830
     168      444        3     0.70589    7.36762    1.22592   20.36857
     169      444        3     0.71971    8.37824    7.72695   30.18181
     170      444        3     0.72372    8.37824    7.72695   21.65207
     171      444        4     0.04643    7.84561    8.00376   31.60625
     172      444        4     0.04696    7.84561    8.00376   23.07651
     173      444        4     0.01432    7.37151    9.44897   31.75311
     174      444        4     0.01546    7.37151    9.44897   23.22337
     175      444        3     0.70367    6.93682    9.84648   33.16618
     176      444        3     0.70085    6.93682    9.84648   24.63644
     177      444        3     0.72460    3.61303    8.87907   29.52034
     178      444        3     0.72342    3.61303    8.87907   20.99060
     179      444        4     0.04534    3.08745    8.59027   28.09465
     180      444        4     0.04845    3.08745    8.59027   19.56492
     181      444        4     0.01616    2.60079    7.14940   27.95303
     182      444        4     0.01205    2.60079    7.14940   19.42329
     183      444        3     0.70284    2.16058    6.75247   26.54111
     184      444        3     0.70920    2.16058    6.75247   18.01137
     185      444        3     0.71910    1.14355    2.18248   33.78723
     186      444        3     0.72599    1.14355    2.18248   25.25749
     187      444        4     0.04705    1.67594    2.45963   32.36311
     188      444        4     0.04478    1.67594    2.45963   23.83337
     189      444        4     0.01476    2.14948    3.90508   32.21819
     190      444        4     0.01652    2.14948    3.90508   23.68845
     191      444        3     0.69810    2.58689    4.30277   30.80646
     192      444        3     0.70379    2.58689    4.30277   22.27672
     193      444        5    -0.67408    4.75881    3.86304   25.81851
     194      444        5    -0.84851    4.75881    3.86304   17.28877
     195      444        5    -0.72423    6.67689    3.05061   24.95805
     196      444        5    -0.58813    6.67689    3.05061   17.05900
     197      444        6    -0.62322    5.39896    3.35099   28.30680
     198      444        6    -0.66278    5.39896    3.35099   19.77706
     199      444        6    -0.61449    5.92341    0.65763   27.11303
     200      444        6    -0.61765    5.92341    0.65763   18.58329
     201      444        5    -0.69873    7.35782    2.06081   29.85354
     202      444        5    -0.68052    7.35782    2.06081   21.32380
     203      444        5    -0.65712    7.68188   11.07932   29.00093
     204      444        5    -0.67118    7.68188   11.07932   20.47119
     205      444        5    -0.67472    9.52970    7.21386   30.08056
     206      444        5    -0.67505    9.52970    7.21386   21.55082
     207      444        5    -0.72833    7.61386    8.02980   29.21799
     208      444        5    -0.72993    7.61386    8.02980   20.68825
     209      444        6    -0.62549    8.87211    7.68407   32.56923
     210      444        6    -0.62501    8.87211    7.68407   24.03949
     211      444        6    -0.60640    8.37972   10.40265   31.37406
     212      444        6    -0.61306    8.37972   10.40265   22.84432
     213      444        5    -0.67773    6.93670    9.01049   25.59041
     214      444        5    -0.66241    6.93670    9.01049   17.06067
     215      444        5    -0.67449    6.58870    0.00368   33.26094
     216      444        5    -0.66344    6.58870    0.00368   24.73120
     217      444        5    -0.67998    4.76050    9.40162   29.62260
     218      444        5    -0.67445    4.76050    9.40162   21.09286
     219      444        5    -0.73131    2.84602    8.58032   30.48338
     220      444        5    -0.73156    2.84602    8.58032   21.95364
     221      444        6    -0.62582    4.12291    8.88864   27.13437
     222      444        6    -0.62663    4.12291    8.88864   18.60463
     223      444        6    -0.61361    3.60314    6.18865   28.33012
     224      444        6    -0.60849    3.60314    6.18865   19.80038
     225      444        5    -0.68742    2.17229    7.58443   34.11336
     226      444        5    -0.67820    2.17229    7.58443   25.58362
     227      444        5    -0.66087    1.81428    5.52331   26.44513
     228      444        5    -0.66373    1.81428    5.52331   17.91540
     229      444        5    -0.67256    9.52527    1.67303   33.88955
     230      444        5    -0.67908    9.52527    1.67303   25.35981
     231      444        5    -0.71724    1.90983    2.48258   17.69124
     232      444        5    -0.73627    1.90983    2.48258   26.22050
     233      444        6    -0.62877    0.64877    2.14240   31.40035
     234      444        6    -0.62346    0.64877    2.14240   22.87061
     235      444        6    -0.62175    1.13878    4.85725   32.59366
     236      444        6    -0.61233    1.13878    4.85725   24.06392
     237      444        5    -0.67932    2.58853    3.46735   29.85223
     238      444        5    -0.67904    2.58853    3.46735   21.32249
     239      444        5    -0.66234    2.91852    5.53636   30.70782
     240      444        5    -0.66390    2.91852    5.53636   22.17808
     241      444        1     1.52813    3.17461   14.94870   10.46331
     242      444        1     1.55730    3.17461   14.94870    1.93357
     243      444        1     1.53325    1.55903   18.27104   14.72775
     244      444        1     1.52959    1.55903   18.27104    6.19801
     245      444        1     1.53020    6.32906   20.49997   10.85979
     246      444        1     1.52757    6.32906   20.49997    2.33005
     247      444        1     1.49608    7.94475   12.74178   15.12523
     248      444        1     1.53087    7.94475   12.74178    6.59549
     249      444        2     0.09843    7.28592   14.81178   10.45875
     250      444        2     0.07482    7.28592   14.81178    1.92901
     251      444        2     0.09635    7.81882   12.59482    9.79454
     252      444        2     0.08070    7.81882   12.59482    1.26481
     253      444        2     0.40292    5.79322   14.23082   12.12385
     254      444        2     0.37895    5.79322   14.23082    3.59411
     255      444        2     0.36602    6.06451   11.53834    9.06904
     256      444        2     0.36035    6.06451   11.53834    0.53930
     257      444        2     0.09588    6.96994   18.41993   14.70651
     258      444        2     0.09971    6.96994   18.41993    6.17677
     259      444        2     0.09605    6.46229   20.64064   14.06446
     260      444        2     0.09678    6.46229   20.64064    5.53472
     261      444        2     0.41135    8.46422   18.96839   16.38575
     262      444        2     0.40847    8.46422   18.96839    7.85601
     263      444        2     0.36317    8.21320   21.68849   13.33439
     264      444        2     0.36520    8.21320   21.68849    4.80465
     265      444        2     0.09886    2.21970   20.34056   10.86448
     266      444        2     0.09734    2.21970   20.34056    2.33475
     267      444        2     0.09429    1.69233   18.12431   11.52586
     268      444        2     0.09511    1.69233   18.12431    2.99612
     269      444        2     0.41260    3.71608   19.76500    9.19908
     270      444        2     0.40897    3.71608   19.76500    0.66933
     271      444        2     0.36332    3.44173   17.06972   12.25507
     272      444        2     0.36494    3.44173   17.06972    3.72533
     273      444        2     0.09744    2.53675   12.87591   15.14379
     274      444        2     0.10041    2.53675   12.87591    6.61405
     275      444        2     0.09446    3.04221   15.09796   15.79118
     276      444        2     0.09410    3.04221   15.09796    7.26144
     277      444        2     0.41336    1.04182   13.42647   13.46585
     278      444        2     0.41145    1.04182   13.42647    4.93611
     279      444        2     0.36679    1.28273   16.13979   16.51777
     280      444        2     0.36347    1.28273   16.13979    7.98803
     281      444        3     0.72066    5.90115   14.42551    8.86207
     282      444        3     0.88326    5.90115   14.42551    0.33233
     283      444        4     0.04740    6.42790   14.13806   10.28704
     284      444        4     0.02771    6.42790   14.13806    1.75730
     285      444        4     0.01325    6.91839   12.69883   10.42742
     286      444        4     0.03222    6.91839   12.69883    1.89768
     287      444        3     0.71615    7.36027   12.30542   11.83930
     288      444        3     0.70589    7.36027   12.30542    3.30957
     289      444        3     0.71971    8.37089   18.80645   13.12281
     290      444        3     0.72372    8.37089   18.80645    4.59307
     291      444        4     0.04643    7.83826   19.08326   14.54725
     292      444        4     0.04696    7.83826   19.08326    6.01751
     293      444        4     0.01432    7.36416   20.52847   14.69411
     294      444        4     0.01546    7.36416   20.52847    6.16437
     295      444        3     0.70367    6.92947   20.92598   16.10718
     296      444        3     0.70085    6.92947   20.92598    7.57744
     297      444        3     0.72460    3.60568   19.95856   12.46134
     298      444        3     0.72342    3.60568   19.95856    3.93160
     299      444        4     0.04534    3.08010   19.66976   11.03565
     300      444        4     0.04845    3.08010   19.66976    2.50592
     301      444        4     0.01616    2.59344   18.22890   10.89403
     302      444        4     0.01205    2.59344   18.22890    2.36429
     303      444        3     0.70284    2.15323   17.83196    9.48211
     304      444        3     0.70920    2.15323   17.83196    0.95237
     305      444        3     0.71910    1.13620   13.26198   16.72823
     306      444        3     0.72599    1.13620   13.26198    8.19849
     307      444        4     0.04705    1.66860   13.53912   15.30411
     308      444        4     0.04478    1.66860   13.53912    6.77437
     309      444        4     0.01476    2.14213   14.98458   15.15919
     310      444        4     0.01652    2.14213   14.98458    6.62945
     311      444        3     0.69810    2.57954   15.38226   13.74746
     312      444        3     0.70379    2.57954   15.38226    5.21772
     313      444        5    -0.67408    4.75147   14.94254    8.75951
     314      444        5    -0.84851    4.75147   14.94254    0.22977
     315      444        5    -0.72423    6.66955   14.13010    7.89905
     316      444        5    -0.58813    6.66955   14.13010    0.00000
     317      444        6    -0.62322    5.39161   14.43049   11.24780
     318      444        6    -0.66278    5.39161   14.43049    2.71806
     319      444        6    -0.61449    5.91606   11.73713   10.05403
     320      444        6    -0.61765    5.91606   11.73713    1.52429
     321      444        5    -0.69873    7.35047   13.14031   12.79454
     322      444        5    -0.68052    7.35047   13.14031    4.26480
     323      444        5    -0.65712    7.67453   22.15882   11.94193
     324      444        5    -0.67118    7.67453   22.15882    3.41219
     325      444        5    -0.67472    9.52235   18.29336   13.02156
     326      444        5    -0.67505    9.52235   18.29336    4.49182
     327      444        5    -0.72833    7.60652   19.10930   12.15899
     328      444        5    -0.72993    7.60652   19.10930    3.62925
     329      444        6    -0.62549    8.86477   18.76357   15.51023
     330      444        6    -0.62501    8.86477   18.76357    6.98049
     331      444        6    -0.60640    8.37237   21.48215   14.31506
     332      444        6    -0.61306    8.37237   21.48215    5.78532
     333      444        5    -0.67773    6.92935   20.08999    8.53141
     334      444        5    -0.66241    6.92935   20.08999    0.00167
     335      444        5    -0.67449    6.58135   11.08318   16.20194
     336      444        5    -0.66344    6.58135   11.08318    7.67220
     337      444        5    -0.67998    4.75315   20.48112   12.56360
     338      444        5    -0.67445    4.75315   20.48112    4.03386
     339      444        5    -0.73131    2.83867   19.65982   13.42438
     340      444        5    -0.73156    2.83867   19.65982    4.89464
     341      444        6    -0.62582    4.11556   19.96814   10.07537
     342      444        6    -0.62663    4.11556   19.96814    1.54563
     343      444        6    -0.61361    3.59579   17.26815   11.27112
     344      444        6    -0.60849    3.59579   17.26815    2.74138
     345      444        5    -0.68742    2.16494   18.66392   17.05436
     346      444        5    -0.67820    2.16494   18.66392    8.52462
     347      444        5    -0.66087    1.80693   16.60280    9.38613
     348      444        5    -0.66373    1.80693   16.60280    0.85640
     349      444        5    -0.67256    9.51792   12.75252   16.83055
     350      444        5    -0.67908    9.51792   12.75252    8.30081
     351      444        5    -0.71724    1.90248   13.56208    0.63224
     352      444        5    -0.73627    1.90248   13.56208    9.16150
     353      444        6    -0.62877    0.64143   13.22190   14.34135
     354      444        6    -0.62346    0.64143   13.22190    5.81161
     355      444        6    -0.62175    1.13143   15.93675   15.53466
     356      444        6    -0.61233    1.13143   15.93675    7.00492
     357      444        5    -0.67932    2.58118   14.54685   12.79323
     358      444        5    -0.67904    2.58118   14.54685    4.26349
     359      444        5    -0.66234    2.91117   16.61586   13.64882
     360      444        5    -0.66390    2.91117   16.61586    5.11908
     361      444        1     1.52813    3.17461   14.94870   27.52231
     362      444        1     1.55730    3.17461   14.94870   18.99257
     363      444        1     1.53325    1.55903   18.27104   31.78675
     364      444        1     1.52959    1.55903   18.27104   23.25701
     365      444        1     1.53020    6.32906   20.49997   27.91879
     366      444        1     1.52757    6.32906   20.49997   19.38905
     367      444        1     1.49608    7.94475   12.74178   32.18423
     368      444        1     1.53087    7.94475   12.74178   23.65449