Created on Tue Feb 06 14:52:52 2018 

        2484 atoms
        3132 bonds
        6264 angles
        8316 dihedrals
        1296 impropers

           6 atom types
           7 bond types
          14 angle types
           5 dihedral types
           1 improper types
           0.000000  27.622501 xlo xhi
           0.000000  33.385441 ylo yhi
           0.000000  36.465746 zlo zhi
           0.063512   0.090643   2.797403 xy xz yz

Masses

    1    65.380000000 # Zn3+2
    2     1.007940000 # H_
    3    12.010700000 # C_R
    4    12.010700000 # C_3
    5    15.999400000 # O_3_z
    6    15.999400000 # O_R

Bond Coeffs

    1      160.291409        1.840266  # Zn3+2 O_R
    2      206.072830        1.692429  # Zn3+2 O_3_z
    3      331.069389        1.109401  # H_ C_3
    4      646.680887        1.311940  # C_R O_R
    5      369.943935        1.486000  # C_R C_3
    6      349.795899        1.514000  # C_3 C_3
    7      720.012703        1.265797  # C_3 O_3_z

Angle Coeffs

    1                      fourier       50.968023        0.343737        0.374972        0.281246 # O_R Zn3+2 O_R
    2                      fourier       62.467680        0.343737        0.374972        0.281246 # O_3_z Zn3+2 O_R
    3              cosine/periodic      130.962624              -1               3 # O_R C_R C_3
    4              cosine/periodic      217.450257              -1               3 # O_R C_R O_R
    5                      fourier       93.452663        0.343737        0.374972        0.281246 # C_3 C_3 C_3
    6                      fourier       69.847816        0.343737        0.374972        0.281246 # H_ C_3 C_3
    7                      fourier       97.888497        0.343737        0.374972        0.281246 # C_3 C_3 C_R
    8                      fourier       73.868412        0.343737        0.374972        0.281246 # H_ C_3 C_R
    9                      fourier      140.430538        0.343737        0.374972        0.281246 # O_3_z C_3 H_
   10                      fourier      180.345994        0.343737        0.374972        0.281246 # O_3_z C_3 C_R
   11                      fourier      171.211471        0.343737        0.374972        0.281246 # O_3_z C_3 C_3
   12                      fourier       36.864345        1.898490        2.651251        0.799497 # Zn3+2 O_3_z C_3
   13                      fourier      115.916564        1.898490        2.651251        0.799497 # C_3 O_3_z C_3
   14              cosine/periodic       50.430477              -1               3 # C_R O_R Zn3+2

Dihedral Coeffs

    1        2.245703              -1               2 # O_R C_R O_R Zn3+2
    2        0.083333               1               3 # O_R C_R C_3 O_3_z
    3        0.066219               1               3 # H_ C_3 C_3 O_3_z
    4        0.416667              -1               2 # H_ C_3 C_R O_R
    5        0.085777               1               2 # H_ C_3 O_3_z C_3

Improper Coeffs

    1        2.000000        1.000000       -1.000000        0.000000               0 # O_R C_R O_R C_3

Pair Coeffs

    1        0.124000        2.461553 # Zn3+2 Zn3+2
    2        0.044000        2.571134 # H_ H_
    3        0.105000        3.430851 # C_R C_R
    4        0.105000        3.430851 # C_3 C_3
    5        0.060000        3.118146 # O_3_z O_3_z
    6        0.060000        3.118146 # O_R O_R

Atoms

       1      444        1     1.07746    1.73311    1.53972    2.69980
       2      444        1     1.05208    4.76840    3.52743   11.19750
       3      444        1     1.07767    6.34274    4.48834    3.36699
       4      444        1     1.05496    0.19386    3.43389    6.97878
       5      444        1     1.08142    7.53091   10.51800    9.44883
       6      444        1     1.05507    4.49941    8.53437    0.90563
       7      444        1     1.07907    2.91900    7.57513    8.73437
       8      444        1     1.05286    9.06278    8.62334    5.12795
       9      444        2     0.11026    3.15659   11.30467   11.06861
      10      444        2     0.12893    3.58342    1.38734    8.28034
      11      444        2     0.14872    0.83337   11.86596   10.91825
      12      444        2     0.12256    1.37118    3.38995   10.31033
      13      444        2     0.10753    7.76639    6.76999    7.14592
      14      444        2     0.12859    8.22893    5.55341    9.91978
      15      444        2     0.14861    5.44996    6.20830    7.28712
      16      444        2     0.12264    6.00220    3.56923    7.90047
      17      444        2     0.10893    6.10665    0.73394    1.08584
      18      444        2     0.12809    5.65885   10.65077    3.85375
      19      444        2     0.14867    8.43198    0.17826    1.24387
      20      444        2     0.12205    7.89451    8.68136    1.83430
      21      444        2     0.10848    1.49585    5.30301    4.96039
      22      444        2     0.12851    1.03577    6.51179    2.18273
      23      444        2     0.14936    3.81290    5.86606    4.81809
      24      444        2     0.12152    3.25528    8.50308    4.19403
      25      444        3     0.62972    2.29205    2.64159   12.10112
      26      444        4    -0.16101    2.81634   11.51095   10.04415
      27      444        3     0.63488    5.18576    1.16341    9.72223
      28      444        4     0.01985    3.72035    1.40853    9.36982
      29      444        4    -0.22490    1.46266    1.18317   10.14644
      30      444        4     0.04873    2.02132    2.54874   10.58936
      31      444        3     0.64770    2.73764   10.20660    9.24912
      32      444        3     0.72687    0.66998    1.33511    8.83548
      33      444        3     0.62848    6.90848    4.31533    6.10349
      34      444        4    -0.15798    7.42544    6.57000    8.17149
      35      444        3     0.62671    0.61275    5.78857    8.46669
      36      444        4     0.02017    8.35892    5.53841    8.82920
      37      444        4    -0.22224    6.09889    5.77588    8.05723
      38      444        4     0.04863    6.65304    4.40753    7.61486
      39      444        3     0.64968    7.35424    7.87985    8.95776
      40      444        3     0.72026    5.29152    5.62099    9.35699
      41      444        3     0.62885    6.99005    9.41929    0.03441
      42      444        4    -0.15626    6.45006    0.54707    2.11324
      43      444        3     0.61801    4.06817   10.88887    2.40101
      44      444        4     0.02280    5.53022   10.64281    2.76317
      45      444        4    -0.21994    7.79062   10.88646    1.99844
      46      444        4     0.04853    7.24197    9.51823    1.54755
      47      444        3     0.64645    6.52671    1.86830    2.87727
      48      444        3     0.71506    8.57817   10.73051    3.31131
      49      444        3     0.63115    2.35572    7.76367    5.99780
      50      444        4    -0.15929    1.83763    5.49976    3.93451
      51      444        3     0.62413    8.64961    6.27194    3.63271
      52      444        4     0.02054    0.90330    6.52697    3.27302
      53      444        4    -0.22187    3.16323    6.29542    4.04692
      54      444        4     0.04820    2.60712    7.66483    4.48546
      55      444        3     0.64863    1.90745    4.18760    3.15310
      56      444        3     0.72092    3.96933    6.44411    2.74537
      57      444        5    -0.31462    3.26805    2.71280    9.85675
      58      444        6    -0.60973    1.18652    2.15766    7.98529
      59      444        6    -0.56678    3.40303    2.10862    0.35333
      60      444        6    -0.55778    1.31711    1.39233    0.72393
      61      444        6    -0.62671    3.09917    9.13850    9.90821
      62      444        6    -0.59741    5.75446    1.85143   10.63404
      63      444        6    -0.59643    8.77191    0.78375    8.66591
      64      444        6    -0.54756    2.35324   10.23662    8.07434
      65      444        6    -0.55166    5.75470   11.37464    9.08743
      66      444        5    -0.31403    7.90532    4.23960    8.33473
      67      444        6    -0.60272    5.79382    4.78999   10.20743
      68      444        6    -0.56534    8.04749    3.92441    5.68225
      69      444        6    -0.55690    5.94906    4.62859    5.34170
      70      444        6    -0.62685    7.68740    8.94654    8.28069
      71      444        6    -0.58881    1.17872    5.10634    7.54773
      72      444        6    -0.59959    4.17854    6.17907    9.51729
      73      444        6    -0.54835    7.00417    7.85412   10.14292
      74      444        6    -0.55132    1.14823    6.72500    9.12394
      75      444        5    -0.31511    5.98795    9.34623    2.26306
      76      444        6    -0.60093    8.05247    9.90840    4.15707
      77      444        6    -0.56699    5.88404    9.95097   11.76739
      78      444        6    -0.55426    7.97544   10.66208   11.42150
      79      444        6    -0.62369    6.16276    2.92090    2.19587
      80      444        6    -0.58017    3.51049   10.21063    1.47482
      81      444        6    -0.59903    0.49437   11.28127    3.49222
      82      444        6    -0.54697    6.90959    1.86899    4.05346
      83      444        6    -0.55347    3.51452    0.70344    3.09323
      84      444        5    -0.31499    1.35204    7.82665    3.76838
      85      444        6    -0.60406    3.46760    7.27407    1.89346
      86      444        6    -0.56659    1.21397    8.14268    6.42168
      87      444        6    -0.55797    3.32050    7.46709    6.75908
      88      444        6    -0.62725    1.57059    3.12641    3.83756
      89      444        6    -0.58797    8.08110    6.95220    4.55147
      90      444        6    -0.59786    5.07887    5.88002    2.58303
      91      444        6    -0.54654    2.25727    4.20555    1.96812
      92      444        6    -0.54907    8.11707    5.33453    2.97449
      93      444        1     1.07746    1.76333    2.47219   14.85505
      94      444        1     1.05208    4.79862    4.45990   23.35275
      95      444        1     1.07767    6.37296    5.42081   15.52224
      96      444        1     1.05496    0.22408    4.36636   19.13403
      97      444        1     1.08142    7.56112   11.45047   21.60408
      98      444        1     1.05507    4.52962    9.46684   13.06088
      99      444        1     1.07907    2.94922    8.50760   20.88962
     100      444        1     1.05286    9.09300    9.55581   17.28320
     101      444        2     0.11026    3.18681   12.23714   23.22385
     102      444        2     0.12893    3.61363    2.31981   20.43559
     103      444        2     0.14872    0.86359   12.79843   23.07349
     104      444        2     0.12256    1.40140    4.32242   22.46557
     105      444        2     0.10753    7.79660    7.70245   19.30117
     106      444        2     0.12859    8.25914    6.48588   22.07503
     107      444        2     0.14861    5.48018    7.14077   19.44237
     108      444        2     0.12264    6.03241    4.50170   20.05572
     109      444        2     0.10893    6.13686    1.66640   13.24109
     110      444        2     0.12809    5.68907   11.58324   16.00900
     111      444        2     0.14867    8.46219    1.11073   13.39912
     112      444        2     0.12205    7.92472    9.61382   13.98955
     113      444        2     0.10848    1.52607    6.23548   17.11564
     114      444        2     0.12851    1.06599    7.44426   14.33798
     115      444        2     0.14936    3.84312    6.79852   16.97333
     116      444        2     0.12152    3.28549    9.43555   16.34928
     117      444        3     0.62972    2.32226    3.57406   24.25637
     118      444        4    -0.16101    2.84656   12.44342   22.19940
     119      444        3     0.63488    5.21598    2.09588   21.87748
     120      444        4     0.01985    3.75056    2.34100   21.52507
     121      444        4    -0.22490    1.49287    2.11564   22.30168
     122      444        4     0.04873    2.05153    3.48121   22.74461
     123      444        3     0.64770    2.76785   11.13906   21.40437
     124      444        3     0.72687    0.70020    2.26758   20.99073
     125      444        3     0.62848    6.93870    5.24780   18.25874
     126      444        4    -0.15798    7.45566    7.50247   20.32674
     127      444        3     0.62671    0.64297    6.72104   20.62194
     128      444        4     0.02017    8.38913    6.47088   20.98444
     129      444        4    -0.22224    6.12910    6.70835   20.21248
     130      444        4     0.04863    6.68326    5.34000   19.77011
     131      444        3     0.64968    7.38445    8.81232   21.11301
     132      444        3     0.72026    5.32174    6.55346   21.51224
     133      444        3     0.62885    7.02026   10.35176   12.18966
     134      444        4    -0.15626    6.48027    1.47954   14.26849
     135      444        3     0.61801    4.09838   11.82134   14.55626
     136      444        4     0.02280    5.56043   11.57527   14.91842
     137      444        4    -0.21994    7.82084   11.81893   14.15369
     138      444        4     0.04853    7.27219   10.45070   13.70279
     139      444        3     0.64645    6.55692    2.80076   15.03252
     140      444        3     0.71506    8.60839   11.66297   15.46656
     141      444        3     0.63115    2.38594    8.69613   18.15305
     142      444        4    -0.15929    1.86785    6.43223   16.08976
     143      444        3     0.62413    8.67982    7.20441   15.78795
     144      444        4     0.02054    0.93351    7.45944   15.42827
     145      444        4    -0.22187    3.19344    7.22788   16.20217
     146      444        4     0.04820    2.63733    8.59730   16.64071
     147      444        3     0.64863    1.93766    5.12007   15.30834
     148      444        3     0.72092    3.99954    7.37658   14.90062
     149      444        5    -0.31462    3.29826    3.64526   22.01200
     150      444        6    -0.60973    1.21674    3.09012   20.14054
     151      444        6    -0.56678    3.43325    3.04109   12.50858
     152      444        6    -0.55778    1.34733    2.32480   12.87918
     153      444        6    -0.62671    3.12938   10.07097   22.06345
     154      444        6    -0.59741    5.78467    2.78390   22.78929
     155      444        6    -0.59643    8.80213    1.71622   20.82116
     156      444        6    -0.54756    2.38346   11.16909   20.22959
     157      444        6    -0.55166    5.78491   12.30710   21.24268
     158      444        5    -0.31403    7.93553    5.17207   20.48998
     159      444        6    -0.60272    5.82403    5.72246   22.36268
     160      444        6    -0.56534    8.07771    4.85688   17.83750
     161      444        6    -0.55690    5.97927    5.56105   17.49695
     162      444        6    -0.62685    7.71762    9.87901   20.43594
     163      444        6    -0.58881    1.20893    6.03881   19.70298
     164      444        6    -0.59959    4.20875    7.11154   21.67254
     165      444        6    -0.54835    7.03438    8.78659   22.29817
     166      444        6    -0.55132    1.17844    7.65746   21.27919
     167      444        5    -0.31511    6.01817   10.27870   14.41831
     168      444        6    -0.60093    8.08269   10.84087   16.31232
     169      444        6    -0.56699    5.91425   10.88344   23.92264
     170      444        6    -0.55426    8.00565   11.59454   23.57675
     171      444        6    -0.62369    6.19297    3.85337   14.35112
     172      444        6    -0.58017    3.54071   11.14310   13.63007
     173      444        6    -0.59903    0.52459   12.21373   15.64746
     174      444        6    -0.54697    6.93980    2.80145   16.20871
     175      444        6    -0.55347    3.54473    1.63591   15.24848
     176      444        5    -0.31499    1.38225    8.75912   15.92363
     177      444        6    -0.60406    3.49781    8.20654   14.04871
     178      444        6    -0.56659    1.24419    9.07515   18.57693
     179      444        6    -0.55797    3.35072    8.39956   18.91433
     180      444        6    -0.62725    1.60080    4.05888   15.99281
     181      444        6    -0.58797    8.11132    7.88466   16.70672
     182      444        6    -0.59786    5.10908    6.81249   14.73828
     183      444        6    -0.54654    2.28748    5.13802   14.12337
     184      444        6    -0.54907    8.14729    6.26700   15.12974
     185      444        1     1.07746    1.79354    3.40466   27.01030
     186      444        1     1.05208    4.82883    5.39236   35.50800
     187      444        1     1.07767    6.40317    6.35327   27.67749
     188      444        1     1.05496    0.25429    5.29882   31.28928
     189      444        1     1.08142    7.59134   12.38294   33.75933
     190      444        1     1.05507    4.55983   10.39931   25.21612
     191      444        1     1.07907    2.97943    9.44007   33.04487
     192      444        1     1.05286    9.12321   10.48827   29.43844
     193      444        2     0.11026    3.21702   13.16961   35.37910
     194      444        2     0.12893    3.64385    3.25228   32.59084
     195      444        2     0.14872    0.89380   13.73090   35.22874
     196      444        2     0.12256    1.43161    5.25489   34.62082
     197      444        2     0.10753    7.82681    8.63492   31.45642
     198      444        2     0.12859    8.28936    7.41835   34.23027
     199      444        2     0.14861    5.51039    8.07324   31.59762
     200      444        2     0.12264    6.06262    5.43416   32.21097
     201      444        2     0.10893    6.16708    2.59887   25.39634
     202      444        2     0.12809    5.71928   12.51571   28.16425
     203      444        2     0.14867    8.49241    2.04320   25.55437
     204      444        2     0.12205    7.95494   10.54629   26.14480
     205      444        2     0.10848    1.55628    7.16795   29.27088
     206      444        2     0.12851    1.09620    8.37673   26.49323
     207      444        2     0.14936    3.87333    7.73099   29.12858
     208      444        2     0.12152    3.31571   10.36802   28.50453
     209      444        3     0.62972    2.35248    4.50653   36.41162
     210      444        4    -0.16101    2.87677   13.37588   34.35465
     211      444        3     0.63488    5.24619    3.02834   34.03273
     212      444        4     0.01985    3.78077    3.27347   33.68032
     213      444        4    -0.22490    1.52308    3.04811   34.45693
     214      444        4     0.04873    2.08175    4.41368   34.89986
     215      444        3     0.64770    2.79807   12.07153   33.55962
     216      444        3     0.72687    0.73041    3.20005   33.14598
     217      444        3     0.62848    6.96891    6.18027   30.41399
     218      444        4    -0.15798    7.48587    8.43494   32.48199
     219      444        3     0.62671    0.67318    7.65351   32.77719
     220      444        4     0.02017    8.41935    7.40335   33.13969
     221      444        4    -0.22224    6.15932    7.64081   32.36773
     222      444        4     0.04863    6.71347    6.27246   31.92536
     223      444        3     0.64968    7.41467    9.74478   33.26826
     224      444        3     0.72026    5.35195    7.48593   33.66749
     225      444        3     0.62885    7.05048   11.28423   24.34491
     226      444        4    -0.15626    6.51049    2.41201   26.42374
     227      444        3     0.61801    4.12860   12.75381   26.71151
     228      444        4     0.02280    5.59065   12.50774   27.07367
     229      444        4    -0.21994    7.85105   12.75139   26.30894
     230      444        4     0.04853    7.30240   11.38317   25.85804
     231      444        3     0.64645    6.58714    3.73323   27.18777
     232      444        3     0.71506    8.63860   12.59544   27.62181
     233      444        3     0.63115    2.41615    9.62860   30.30830
     234      444        4    -0.15929    1.89806    7.36470   28.24501
     235      444        3     0.62413    8.71004    8.13688   27.94320
     236      444        4     0.02054    0.96372    8.39190   27.58352
     237      444        4    -0.22187    3.22366    8.16035   28.35742
     238      444        4     0.04820    2.66755    9.52977   28.79595
     239      444        3     0.64863    1.96788    6.05253   27.46359
     240      444        3     0.72092    4.02976    8.30905   27.05587
     241      444        5    -0.31462    3.32848    4.57773   34.16725
     242      444        6    -0.60973    1.24695    4.02259   32.29579
     243      444        6    -0.56678    3.46346    3.97356   24.66383
     244      444        6    -0.55778    1.37754    3.25727   25.03443
     245      444        6    -0.62671    3.15960   11.00344   34.21870
     246      444        6    -0.59741    5.81488    3.71637   34.94454
     247      444        6    -0.59643    8.83234    2.64869   32.97641
     248      444        6    -0.54756    2.41367   12.10155   32.38484
     249      444        6    -0.55166    5.81513   13.23957   33.39793
     250      444        5    -0.31403    7.96575    6.10454   32.64523
     251      444        6    -0.60272    5.85424    6.65492   34.51793
     252      444        6    -0.56534    8.10792    5.78935   29.99275
     253      444        6    -0.55690    6.00948    6.49352   29.65219
     254      444        6    -0.62685    7.74783   10.81148   32.59119
     255      444        6    -0.58881    1.23915    6.97128   31.85823
     256      444        6    -0.59959    4.23897    8.04401   33.82779
     257      444        6    -0.54835    7.06459    9.71905   34.45342
     258      444        6    -0.55132    1.20866    8.58993   33.43443
     259      444        5    -0.31511    6.04838   11.21117   26.57356
     260      444        6    -0.60093    8.11290   11.77334   28.46757
     261      444        6    -0.56699    5.94447   11.81590   36.07788
     262      444        6    -0.55426    8.03587   12.52701   35.73199
     263      444        6    -0.62369    6.22319    4.78584   26.50637
     264      444        6    -0.58017    3.57092   12.07557   25.78532
     265      444        6    -0.59903    0.55480   13.14620   27.80271
     266      444        6    -0.54697    6.97001    3.73392   28.36396
     267      444        6    -0.55347    3.57494    2.56838   27.40373
     268      444        5    -0.31499    1.41246    9.69158   28.07888
     269      444        6    -0.60406    3.52803    9.13900   26.20396
     270      444        6    -0.56659    1.27440   10.00761   30.73218
     271      444        6    -0.55797    3.38093    9.33202   31.06958
     272      444        6    -0.62725    1.63102    4.99135   28.14806
     273      444        6    -0.58797    8.14153    8.81713   28.86197
     274      444        6    -0.59786    5.13930    7.74496   26.89352
     275      444        6    -0.54654    2.31769    6.07049   26.27861
     276      444        6    -0.54907    8.17750    7.19947   27.28498
     277      444        1     1.07746    1.75428   12.66820    2.69980
     278      444        1     1.05208    4.78957   14.65591   11.19750
     279      444        1     1.07767    6.36391   15.61682    3.36699
     280      444        1     1.05496    0.21503   14.56237    6.97878
     281      444        1     1.08142    7.55208   21.64648    9.44883
     282      444        1     1.05507    4.52058   19.66285    0.90563
     283      444        1     1.07907    2.94018   18.70361    8.73437
     284      444        1     1.05286    9.08395   19.75182    5.12795
     285      444        2     0.11026    3.17776   22.43315   11.06861
     286      444        2     0.12893    3.60459   12.51582    8.28034
     287      444        2     0.14872    0.85454   22.99444   10.91825
     288      444        2     0.12256    1.39236   14.51843   10.31033
     289      444        2     0.10753    7.78756   17.89847    7.14592
     290      444        2     0.12859    8.25010   16.68189    9.91978
     291      444        2     0.14861    5.47113   17.33678    7.28712
     292      444        2     0.12264    6.02337   14.69771    7.90047
     293      444        2     0.10893    6.12782   11.86242    1.08584
     294      444        2     0.12809    5.68003   21.77925    3.85375
     295      444        2     0.14867    8.45315   11.30674    1.24387
     296      444        2     0.12205    7.91568   19.80984    1.83430
     297      444        2     0.10848    1.51702   16.43149    4.96039
     298      444        2     0.12851    1.05694   17.64027    2.18273
     299      444        2     0.14936    3.83407   16.99454    4.81809
     300      444        2     0.12152    3.27645   19.63157    4.19403
     301      444        3     0.62972    2.31322   13.77007   12.10112
     302      444        4    -0.16101    2.83751   22.63943   10.04415
     303      444        3     0.63488    5.20694   12.29189    9.72223
     304      444        4     0.01985    3.74152   12.53701    9.36982
     305      444        4    -0.22490    1.48383   12.31166   10.14644
     306      444        4     0.04873    2.04249   13.67722   10.58936
     307      444        3     0.64770    2.75881   21.33508    9.24912
     308      444        3     0.72687    0.69116   12.46359    8.83548
     309      444        3     0.62848    6.92966   15.44381    6.10349
     310      444        4    -0.15798    7.44661   17.69848    8.17149
     311      444        3     0.62671    0.63393   16.91705    8.46669
     312      444        4     0.02017    8.38009   16.66689    8.82920
     313      444        4    -0.22224    6.12006   16.90436    8.05723
     314      444        4     0.04863    6.67421   15.53601    7.61486
     315      444        3     0.64968    7.37541   19.00833    8.95776
     316      444        3     0.72026    5.31269   16.74947    9.35699
     317      444        3     0.62885    7.01122   20.54777    0.03441
     318      444        4    -0.15626    6.47123   11.67555    2.11324
     319      444        3     0.61801    4.08934   22.01736    2.40101
     320      444        4     0.02280    5.55139   21.77129    2.76317
     321      444        4    -0.21994    7.81179   22.01494    1.99844
     322      444        4     0.04853    7.26314   20.64671    1.54755
     323      444        3     0.64645    6.54788   12.99678    2.87727
     324      444        3     0.71506    8.59934   21.85899    3.31131
     325      444        3     0.63115    2.37689   18.89215    5.99780
     326      444        4    -0.15929    1.85880   16.62824    3.93451
     327      444        3     0.62413    8.67078   17.40042    3.63271
     328      444        4     0.02054    0.92447   17.65545    3.27302
     329      444        4    -0.22187    3.18440   17.42390    4.04692
     330      444        4     0.04820    2.62829   18.79331    4.48546
     331      444        3     0.64863    1.92862   15.31608    3.15310
     332      444        3     0.72092    3.99050   17.57259    2.74537
     333      444        5    -0.31462    3.28922   13.84128    9.85675
     334      444        6    -0.60973    1.20770   13.28614    7.98529
     335      444        6    -0.56678    3.42420   13.23710    0.35333
     336      444        6    -0.55778    1.33828   12.52081    0.72393
     337      444        6    -0.62671    3.12034   20.26698    9.90821
     338      444        6    -0.59741    5.77563   12.97991   10.63404
     339      444        6    -0.59643    8.79308   11.91223    8.66591
     340      444        6    -0.54756    2.37441   21.36510    8.07434
     341      444        6    -0.55166    5.77587   22.50312    9.08743
     342      444        5    -0.31403    7.92649   15.36808    8.33473
     343      444        6    -0.60272    5.81499   15.91847   10.20743
     344      444        6    -0.56534    8.06866   15.05290    5.68225
     345      444        6    -0.55690    5.97023   15.75707    5.34170
     346      444        6    -0.62685    7.70857   20.07502    8.28069
     347      444        6    -0.58881    1.19989   16.23482    7.54773
     348      444        6    -0.59959    4.19971   17.30755    9.51729
     349      444        6    -0.54835    7.02534   18.98260   10.14292
     350      444        6    -0.55132    1.16940   17.85348    9.12394
     351      444        5    -0.31511    6.00912   20.47471    2.26306
     352      444        6    -0.60093    8.07364   21.03688    4.15707
     353      444        6    -0.56699    5.90521   21.07945   11.76739
     354      444        6    -0.55426    7.99661   21.79056   11.42150
     355      444        6    -0.62369    6.18393   14.04938    2.19587
     356      444        6    -0.58017    3.53166   21.33911    1.47482
     357      444        6    -0.59903    0.51554   22.40975    3.49222
     358      444        6    -0.54697    6.93076   12.99747    4.05346
     359      444        6    -0.55347    3.53569   11.83192    3.09323
     360      444        5    -0.31499    1.37321   18.95513    3.76838
     361      444        6    -0.60406    3.48877   18.40255    1.89346
     362      444        6    -0.56659    1.23514   19.27116    6.42168
     363      444        6    -0.55797    3.34168   18.59557    6.75908
     364      444        6    -0.62725    1.59176   14.25489    3.83756
     365      444        6    -0.58797    8.10227   18.08068    4.55147
     366      444        6    -0.59786    5.10004   17.00850    2.58303
     367      444        6    -0.54654    2.27844   15.33403    1.96812
     368      444        6    -0.54907    8.13825   16.46301    2.97449
     369      444        1     1.07746    1.78450   13.60067   14.85505