Created on Tue Feb 06 14:40:41 2018 

        3840 atoms
        4352 bonds
        7552 angles
        8960 dihedrals
        5184 impropers

           6 atom types
           9 bond types
          15 angle types
           4 dihedral types
           1 improper types
           0.000000  43.700000 xlo xhi
           0.000000  43.133340 ylo yhi
           0.000000  27.377718 zlo zhi
          -7.520216  -4.482163  -3.352298 xy xz yz

Masses

    1    65.380000000 # Zn4+2
    2     1.007940000 # H_
    3    12.010700000 # C_R
    4    12.010700000 # C_3
    5    14.006700000 # N_R
    6    15.999400000 # O_2

Bond Coeffs

    1      104.409475        2.122938  # Zn4+2 O_2
    2      101.478011        2.216443  # Zn4+2 N_R
    3      357.440381        1.081418  # H_ C_R
    4      331.069389        1.109401  # H_ C_3
    5      714.557442        1.269010  # C_R O_2
    6      391.669513        1.458000  # C_R C_R
    7      462.655054        1.379256  # C_R C_R
    8      663.718927        1.345073  # C_R N_R
    9      369.943935        1.486000  # C_R C_3

Angle Coeffs

    1              cosine/periodic       43.207730               1               4 # O_2 Zn4+2 O_2
    2              cosine/periodic       42.809957               1               4 # O_2 Zn4+2 N_R
    3              cosine/periodic      148.862838              -1               3 # O_2 C_R C_R
    4              cosine/periodic      256.805977              -1               3 # O_2 C_R O_2
    5              cosine/periodic      101.626578              -1               3 # C_R C_R C_R
    6              cosine/periodic      117.010657              -1               3 # C_R C_R C_R
    7              cosine/periodic       76.817955              -1               3 # H_ C_R C_R
    8              cosine/periodic      109.704024              -1               3 # H_ C_R N_R
    9              cosine/periodic      165.695700              -1               3 # C_R C_R N_R
   10              cosine/periodic       96.739224              -1               3 # C_3 C_R C_R
   11                      fourier       73.868412        0.343737        0.374972        0.281246 # C_R C_3 H_
   12                      fourier       61.342703        0.343737        0.374972        0.281246 # H_ C_3 H_
   13              cosine/periodic      132.654363              -1               3 # C_R N_R C_R
   14              cosine/periodic       21.958282              -1               3 # C_R N_R Zn4+2
   15              cosine/periodic       28.000941              -1               3 # C_R O_2 Zn4+2

Dihedral Coeffs

    1        2.245703              -1               2 # O_2 C_R O_2 Zn4+2
    2        0.555556              -1               2 # O_2 C_R C_R C_R
    3        1.497136              -1               2 # C_R C_R C_R C_R
    4        0.083333               1               3 # C_R C_R C_3 H_

Improper Coeffs

    1        2.000000        1.000000       -1.000000        0.000000               0 # O_2 C_R O_2 C_R

Pair Coeffs

    1        0.124000        2.461553 # Zn4+2 Zn4+2
    2        0.044000        2.571134 # H_ H_
    3        0.105000        3.430851 # C_R C_R
    4        0.105000        3.430851 # C_3 C_3
    5        0.069000        3.260689 # N_R N_R
    6        0.060000        3.118146 # O_2 O_2

Atoms

       1      444        1     0.92438    0.85109    6.65702   12.21512
       2      444        1     0.92438   -1.24414   17.51778   12.21512
       3      444        1     0.92438   11.91551    6.65965   12.21690
       4      444        1     0.92438    9.82013   17.52030   12.21690
       5      444        1     0.92438    0.80149    6.59164    9.32266
       6      444        1     0.92438   -1.29392   17.45233    9.32266
       7      444        1     0.92438   11.83161    6.59017    9.32074
       8      444        1     0.92438    9.73626   17.45091    9.32074
       9      444        1     0.92438    6.60269    2.89301    1.67716
      10      444        1     0.92438    4.50730   13.75369    1.67716
      11      444        1     0.92438   17.66695    2.89556    1.67894
      12      444        1     0.92438   15.57173   13.75632    1.67894
      13      444        1     0.92438    6.68656    2.96246    4.57331
      14      444        1     0.92438    4.59120   13.82317    4.57331
      15      444        1     0.92438   17.71674    2.96101    4.57139
      16      444        1     0.92438   15.62132   13.82173    4.57139
      17      444        2     0.11020    1.76080   -0.18976    8.76854
      18      444        2     0.11020   -0.33237   10.67140    8.76826
      19      444        2     0.11020   12.80096   -0.18961    8.76867
      20      444        2     0.11020   10.70619   10.67119    8.76867
      21      444        2     0.11020    1.15882    2.25414    8.70064
      22      444        2     0.11020   -0.93429   13.11532    8.70050
      23      444        2     0.11020   12.19925    2.25463    8.70160
      24      444        2     0.11020   10.10444   13.11540    8.70146
      25      444        2     0.11020    2.03277    2.57104   12.89326
      26      444        2     0.11020   -0.06155   13.43187   12.89326
      27      444        2     0.11020   13.08828    2.57359   12.89080
      28      444        2     0.11020   10.99487   13.43472   12.89039
      29      444        2     0.11020    2.59725    0.14462   12.96650
      30      444        2     0.11020    0.50275   11.00541   12.96663
      31      444        2     0.11020   13.65057    0.14674   12.96403
      32      444        2     0.11020   11.55695   11.00785   12.96362
      33      444        2     0.11020    7.49321    6.13388    8.55814
      34      444        2     0.11020    5.39812   16.99420    8.55554
      35      444        2     0.11020   18.53952    6.13219    8.54992
      36      444        2     0.11020   16.44398   16.99146    8.55006
      37      444        2     0.11020    4.99261    6.27221    8.66998
      38      444        2     0.11020    2.89708   17.13230    8.67011
      39      444        2     0.11020   16.03927    6.26899    8.66258
      40      444        2     0.11020   13.94379   17.12833    8.66272
      41      444        2     0.11020    5.22325    7.08655   12.87875
      42      444        2     0.11020    3.12785   17.94819   12.87862
      43      444        2     0.11020   16.27117    7.09544   12.86903
      44      444        2     0.11020   14.17587   17.95626   12.86890
      45      444        2     0.11020    7.72858    6.91574   12.76924
      46      444        2     0.11020    5.63321   17.77724   12.76897
      47      444        2     0.11020   -3.56871    6.92568   12.75897
      48      444        2     0.11020   -5.46223   17.78644   12.75884
      49      444        2     0.11020    1.93445    9.81723    0.64926
      50      444        2     0.11020   -0.16266   20.67809    0.64858
      51      444        2     0.11020   12.98183    9.81995    0.64762
      52      444        2     0.11020   10.88710   20.68070    0.64735
      53      444        2     0.11020    1.68842    5.35362    2.66508
      54      444        2     0.11020   -0.40212   16.21487    2.66618
      55      444        2     0.11020   12.75406    5.35767    2.66851
      56      444        2     0.11020   10.66011   16.21870    2.66892
      57      444        2     0.11020    2.15328    5.70573    0.22682
      58      444        2     0.11020    0.06217   16.56676    0.22778
      59      444        2     0.11020   13.22288    5.70900    0.23093
      60      444        2     0.11020   11.12846   16.56970    0.23120
      61      444        2     0.11020    3.35797    7.74399    5.04777
      62      444        2     0.11020    1.26291   18.60863    5.04914
      63      444        2     0.11020   14.40458    7.75520    5.05461
      64      444        2     0.11020   12.31016   18.61663    5.05530
      65      444        2     0.11020    2.99662    7.32939    7.50286
      66      444        2     0.11020    0.90077   18.19366    7.50410
      67      444        2     0.11020   14.03707    7.33796    7.50861
      68      444        2     0.11020   11.94215   18.19941    7.50916
      69      444        2     0.11020   -0.97264    6.35100    6.88248
      70      444        2     0.11020   -3.06671   17.20938    6.88153
      71      444        2     0.11020   10.07334    6.34554    6.87441
      72      444        2     0.11020    7.97859   17.20683    6.87413
      73      444        2     0.11020    2.28685   10.15892    4.02179
      74      444        2     0.11020    0.19243   21.02424    4.01727
      75      444        2     0.11020   13.33078   10.17188    4.01084
      76      444        2     0.11020   11.23645   21.03278    4.01426
      77      444        2     0.11020    3.48346    0.03520    2.68000
      78      444        2     0.11020    1.39624   10.89626    2.68110
      79      444        2     0.11020   14.52270    0.03748    2.67686
      80      444        2     0.11020   12.42643   10.89795    2.67713
      81      444        2     0.11020    0.52862    9.97752    3.93651
      82      444        2     0.11020   -1.56539   20.83537    3.94020
      83      444        2     0.11020   11.57335    9.97375    3.93842
      84      444        2     0.11020    9.47966   20.83478    3.93883
      85      444        2     0.11020   -0.91217    6.02426    3.30476
      86      444        2     0.11020   -3.00402   16.88186    3.30435
      87      444        2     0.11020   10.14615    6.02462    3.29587
      88      444        2     0.11020    8.05182   16.88506    3.29614
      89      444        2     0.11020    9.07957    6.19422    4.70103
      90      444        2     0.11020    6.98492   17.05642    4.70089
      91      444        2     0.11020   -1.95354    6.20354    4.71171
      92      444        2     0.11020   -3.84640   17.06148    4.71061
      93      444        2     0.11020   -1.49511    7.62752    3.75923
      94      444        2     0.11020   -3.58841   18.48505    3.75704
      95      444        2     0.11020    9.55433    7.62359    3.75417
      96      444        2     0.11020    7.46079   18.48474    3.75307
      97      444        2     0.11020    5.71659    9.74215    5.12538
      98      444        2     0.11020    3.62185   20.60295    5.12538
      99      444        2     0.11020   16.75542    9.74203    5.12566
     100      444        2     0.11020   14.66241   20.60321    5.12552
     101      444        2     0.11020    6.31831    7.29792    5.19259
     102      444        2     0.11020    4.22354   18.15871    5.19246
     103      444        2     0.11020   17.35824    7.29875    5.18808
     104      444        2     0.11020   15.26440   18.15930    5.19328
     105      444        2     0.11020    5.42810    6.97866    1.00353
     106      444        2     0.11020    3.33458   17.83978    1.00326
     107      444        2     0.11020   16.48434    6.98150    1.00079
     108      444        2     0.11020   14.39008   17.84230    1.00093
     109      444        2     0.11020    4.86599    9.40553    0.93029
     110      444        2     0.11020    2.77231   20.26663    0.93002
     111      444        2     0.11020   15.92002    9.40795    0.92742
     112      444        2     0.11020   13.82563   20.26876    0.92756
     113      444        2     0.11020   -0.02116    3.42188    5.34399
     114      444        2     0.11020   -2.11581   14.28185    5.33866
     115      444        2     0.11020   11.02515    3.41954    5.33578
     116      444        2     0.11020    8.92961   14.27949    5.33592
     117      444        2     0.11020    2.47903    3.28501    5.23133
     118      444        2     0.11020    0.38354   14.14437    5.23147
     119      444        2     0.11020   13.52574    3.28115    5.22394
     120      444        2     0.11020   11.43027   14.14121    5.22367
     121      444        2     0.11020    2.24698    2.45731    1.02502
     122      444        2     0.11020    0.15168   13.31801    1.02502
     123      444        2     0.11020   13.29496    2.46532    1.01544
     124      444        2     0.11020   11.19958   13.32700    1.01517
     125      444        2     0.11020   -0.25675    2.62712    1.13522
     126      444        2     0.11020   -2.35206   13.48776    1.13508
     127      444        2     0.11020   10.78965    2.63627    1.12495
     128      444        2     0.11020    8.69424   13.49780    1.12481
     129      444        2     0.11020    5.53584   -0.26728   13.24657
     130      444        2     0.11020    3.44123   10.59363   13.24534
     131      444        2     0.11020   16.58544   -0.26467   13.24534
     132      444        2     0.11020   14.48831   10.59624   13.24466
     133      444        2     0.11020    5.76285    4.19482   11.22528
     134      444        2     0.11020    3.66884   15.05590   11.22569
     135      444        2     0.11020   16.82516    4.19867   11.22801
     136      444        2     0.11020   14.73468   15.05994   11.22911
     137      444        2     0.11020    5.29447    3.84369   13.66299
     138      444        2     0.11020    3.19996   14.70443   13.66326
     139      444        2     0.11020   16.36083    3.84665   13.66641
     140      444        2     0.11020   14.26978   14.70771   13.66737
     141      444        2     0.11020    4.11272    1.79699    8.83890
     142      444        2     0.11020    2.01844   12.65844    8.83890
     143      444        2     0.11020   15.15988    1.80525    8.84492
     144      444        2     0.11020   13.06490   12.67009    8.84574
     145      444        2     0.11020    4.48069    2.21415    6.38503
     146      444        2     0.11020    2.38579   13.07547    6.38558
     147      444        2     0.11020   15.52199    2.22011    6.39010
     148      444        2     0.11020   13.42814   13.08598    6.37901
     149      444        2     0.11020    8.44428    3.20670    7.01992
     150      444        2     0.11020    6.34953   14.06799    7.01965
     151      444        2     0.11020   19.48960    3.20390    7.01253
     152      444        2     0.11020   17.39557   14.06223    7.01143
     153      444        2     0.11020    5.18657   -0.61916    9.87925
     154      444        2     0.11020    3.09284   10.24218    9.87911
     155      444        2     0.11020   16.23032   -0.61058    9.87665
     156      444        2     0.11020   14.13599   10.25485    9.87199
     157      444        2     0.11020    3.99664    9.51562   11.21679
     158      444        2     0.11020    5.69229   -1.37349   11.21706
     159      444        2     0.11020   15.02640    9.51731   11.21254
     160      444        2     0.11020   16.73162   -1.37308   11.21378
     161      444        2     0.11020    6.94327   -0.42117    9.95509
     162      444        2     0.11020    4.84961   10.43991    9.95550
     163      444        2     0.11020   17.98815   -0.42180    9.95372
     164      444        2     0.11020   15.89424   10.43599    9.95755
     165      444        2     0.11020    8.37107    3.52851   10.59791
     166      444        2     0.11020    6.27678   14.38904   10.59791
     167      444        2     0.11020   -2.57549    3.53155   10.58970
     168      444        2     0.11020   17.33528   14.38916   10.58915
     169      444        2     0.11020   -1.60894    3.35179    9.18344
     170      444        2     0.11020   -3.70189   14.20963    9.18194
     171      444        2     0.11020    9.43795    3.35724    9.19316
     172      444        2     0.11020    7.34328   14.21955    9.19303
     173      444        2     0.11020    8.96216    1.92888   10.14098
     174      444        2     0.11020    6.86869   12.79013   10.13975
     175      444        2     0.11020   -2.21219    1.92829   10.13701
     176      444        2     0.11020   -4.10477   12.78578   10.13482
     177      444        3     0.66582    0.47023    9.22691   10.90290
     178      444        3     0.66582   -1.62628   20.08748   10.90290
     179      444        3     0.66582   11.51052    9.22694   10.90235
     180      444        3     0.66582    9.41459   20.08755   10.90249
     181      444        3    -0.03968    2.21831   -0.17061   10.86786
     182      444        3    -0.03968    0.12455   10.69038   10.86772
     183      444        3    -0.03968   13.26326   -0.16968   10.86690
     184      444        3    -0.03968   11.16901   10.69127   10.86663
     185      444        3    -0.09237    1.81193    0.42777    9.66475
     186      444        3    -0.09237   -0.28152   11.28887    9.66461
     187      444        3    -0.09237   12.85477    0.42843    9.66447
     188      444        3    -0.09237   10.76029   11.28929    9.66433
     189      444        3    -0.09237    1.47714    1.77909    9.62833
     190      444        3    -0.09237   -0.61633   12.64019    9.62820
     191      444        3    -0.09237   12.52037    1.77982    9.62833
     192      444        3    -0.09237   10.42579   12.64066    9.62820
     193      444        3    -0.03968    1.55016    2.56060   10.79202
     194      444        3    -0.03968   -0.54388   13.42153   10.79202
     195      444        3    -0.03968   12.59645    2.56164   10.79161
     196      444        3    -0.03968   10.50203   13.42253   10.79148
     197      444        3    -0.09237    1.96063    1.96231   11.99336
     198      444        3    -0.09237   -0.13352   12.82315   11.99336
     199      444        3    -0.09237   13.01232    1.96429   11.99158
     200      444        3    -0.09237   10.91849   12.82534   11.99130
     201      444        3    -0.09237    2.28423    0.60861   12.03264
     202      444        3    -0.09237    0.19008   11.46945   12.03264
     203      444        3    -0.09237   13.33482    0.61036   12.03086
     204      444        3    -0.09237   11.24102   11.47143   12.03045
     205      444        3     0.66582    1.20847    4.02455   10.74617
     206      444        3     0.66582   -0.88576   14.88545   10.74630
     207      444        3     0.66582   12.25159    4.02489   10.74712
     208      444        3     0.66582   10.15663   14.88567   10.74699
     209      444        3     0.66582   -1.78971    6.46212   10.58751
     210      444        3     0.66582   -3.88495   17.32241   10.58696
     211      444        3     0.66582    9.26042    6.45980   10.59080
     212      444        3     0.66582    7.16498   17.32050   10.59080
     213      444        3    -0.03968    7.75907    6.52072   10.65746
     214      444        3    -0.03968    5.66364   17.38148   10.65746
     215      444        3    -0.03968   -3.10808    6.52527   10.64719
     216      444        3    -0.03968   16.71174   17.38514   10.64815
     217      444        3    -0.09237    6.98732    6.34218    9.49979
     218      444        3    -0.09237    4.89188   17.20255    9.49979
     219      444        3    -0.09237   18.03454    6.34359    9.49144
     220      444        3    -0.09237   15.93912   17.20317    9.49158
     221      444        3    -0.09237    5.59975    6.42917    9.56016
     222      444        3    -0.09237    3.50428   17.28958    9.56016
     223      444        3    -0.09237   16.64617    6.42943    9.55236
     224      444        3    -0.09237   14.55073   17.28916    9.55250
     225      444        3    -0.03968    4.95727    6.70566   10.77765
     226      444        3    -0.03968    2.86187   17.56655   10.77751
     227      444        3    -0.03968   16.00264    6.70813   10.76875
     228      444        3    -0.03968   13.90726   17.56846   10.76875
     229      444        3    -0.09237    5.72926    6.88064   11.93641
     230      444        3    -0.09237    3.63386   17.74191   11.93627
     231      444        3    -0.09237   16.77598    6.88751   11.92642
     232      444        3    -0.09237   14.68064   17.74805   11.92642
     233      444        3    -0.09237    7.11729    6.78421   11.87741
     234      444        3    -0.09237    5.02190   17.64542   11.87728
     235      444        3    -0.09237   18.16410    6.79196   11.86715
     236      444        3    -0.09237   16.06880   17.65243   11.86687
     237      444        3     0.66582    3.45661    6.78176   10.83939
     238      444        3     0.66582    1.36125   17.64276   10.83939
     239      444        3     0.66582   14.50097    6.78214   10.83364
     240      444        3     0.66582   12.40558   17.64271   10.83377
     241      444        3     0.12850    1.87187    8.84767    1.14494
     242      444        3     0.12850   -0.22369   19.70867    1.14439
     243      444        3     0.12850   12.92376    8.85072    1.14453
     244      444        3     0.12850   10.82923   19.71152    1.14439
     245      444        3    -0.03968    1.61629    8.76377    2.51670
     246      444        3    -0.03968   -0.47910   19.62487    2.51656
     247      444        3    -0.03968   12.66545    8.76713    2.51574
     248      444        3    -0.03968   10.57123   19.62812    2.51574
     249      444        3    -0.03968    1.54107    7.47379    3.07904
     250      444        3    -0.03968   -0.55247   18.33507    3.07862
     251      444        3    -0.03968   12.59524    7.47752    3.07958
     252      444        3    -0.03968   10.50111   18.33859    3.07986
     253      444        3    -0.09237    1.73070    6.36053    2.25428
     254      444        3    -0.09237   -0.36127   17.22168    2.25497
     255      444        3    -0.09237   12.79264    6.36432    2.25647
     256      444        3    -0.09237   10.69850   17.22526    2.25688
     257      444        3     0.12850    1.99199    6.54245    0.90442
     258      444        3     0.12850   -0.10029   17.40349    0.90511
     259      444        3     0.12850   13.05635    6.54580    0.90716
     260      444        3     0.12850   10.96194   17.40657    0.90743
     261      444        3    -0.03968    1.31101    7.26626    4.53457
     262      444        3    -0.03968   -0.78297   18.12761    4.53485
     263      444        3    -0.03968   12.36130    7.27003    4.53457
     264      444        3    -0.03968   10.26701   18.13125    4.53485
     265      444        3    -0.09237    2.37927    7.44269    5.42038
     266      444        3    -0.09237    0.28448   18.30587    5.42120
     267      444        3    -0.09237   13.42588    7.45022    5.42407
     268      444        3    -0.09237   11.33143   18.31159    5.42448
     269      444        3     0.12850    2.19408    7.21297    6.77585
     270      444        3     0.12850    0.09881   18.07599    6.77653
     271      444        3     0.12850   13.23728    7.21922    6.77886
     272      444        3     0.12850   11.14253   18.08057    6.77927
     273      444        3     0.12850   -0.03083    6.65691    6.42446
     274      444        3     0.12850   -2.12507   17.51656    6.42404
     275      444        3     0.12850   11.01562    6.65523    6.42007
     276      444        3     0.12850    8.92098   17.51650    6.41994
     277      444        3    -0.03968    0.05867    6.86094    5.04339
     278      444        3    -0.03968   -2.03507   17.72062    5.04298
     279      444        3    -0.03968   11.10873    6.86045    5.03942
     280      444        3    -0.03968    9.01433   17.72173    5.03942
     281      444        4    -0.34156    1.44435   10.01436    3.32954
     282      444        4    -0.34156   -0.65266   20.87549    3.32899
     283      444        4    -0.34156   12.48566   10.01772    3.32694
     284      444        4    -0.34156   10.39162   20.87882    3.32680
     285      444        4    -0.34156   -1.14439    6.66608    4.16484
     286      444        4    -0.34156   -3.23736   17.52419    4.16374
     287      444        4    -0.34156    9.90883    6.66250    4.15731
     288      444        4    -0.34156    7.81459   17.52377    4.15717
     289      444        3     0.66582    7.00825    0.32579    2.99156
     290      444        3     0.66582    4.91232   11.18640    2.99170
     291      444        3     0.66582   18.04924    0.32591    2.99115
     292      444        3     0.66582   15.95265   11.18645    2.99115
     293      444        3    -0.03968    5.25398    9.72220    3.02661
     294      444        3    -0.03968    3.15956   20.58302    3.02715
     295      444        3    -0.03968   16.29835    9.72298    3.02633
     296      444        3    -0.03968   14.20472   20.58402    3.02620
     297      444        3    -0.09237    5.66253    9.12405    4.22972
     298      444        3    -0.09237    3.56803   19.98491    4.22958
     299      444        3    -0.09237   16.70451    9.12451    4.22945
     300      444        3    -0.09237   14.61120   19.98566    4.22931
     301      444        3    -0.09237    5.99701    7.77268    4.26586
     302      444        3    -0.09237    3.90245   18.63352    4.26572
     303      444        3    -0.09237   17.03938    7.77327    4.26545
     304      444        3    -0.09237   14.94597   18.63434    4.26572
     305      444        3    -0.03968    5.92080    6.99081    3.10258
     306      444        3    -0.03968    3.82638   17.85172    3.10244
     307      444        3    -0.03968   16.96678    6.99183    3.10203
     308      444        3    -0.03968   14.87283   17.85278    3.10203
     309      444        3    -0.09237    5.50441    7.58802    1.90275
     310      444        3    -0.09237    3.41053   18.44907    1.90248
     311      444        3    -0.09237   16.55635    7.59021    1.90070
     312      444        3    -0.09237   14.46231   18.45108    1.90070
     313      444        3    -0.09237    5.18191    8.94195    1.86346
     314      444        3    -0.09237    3.08802   19.80297    1.86333
     315      444        3    -0.09237   16.23274    8.94391    1.86141
     316      444        3    -0.09237   14.13871   19.80477    1.86141
     317      444        3     0.66582    6.26621    5.52767    3.14707
     318      444        3     0.66582    4.17124   16.38845    3.14693
     319      444        3     0.66582   17.30862    5.52791    3.14775
     320      444        3     0.66582   15.21445   16.38883    3.14789
     321      444        3     0.66582    9.25783    3.09289    3.30326
     322      444        3     0.66582    7.16239   13.95356    3.30326
     323      444        3     0.66582   20.30787    3.09104    3.30654
     324      444        3     0.66582   18.21252   13.95124    3.30654
     325      444        3    -0.03968   -0.28891    3.02829    3.24590
     326      444        3    -0.03968   -2.38430   13.88821    3.24590
     327      444        3    -0.03968   10.75919    3.03202    3.23659
     328      444        3    -0.03968    8.66384   13.89278    3.23605
     329      444        3    -0.09237    0.48371    3.21023    4.40247
     330      444        3    -0.09237   -1.61168   14.06982    4.40234
     331      444        3    -0.09237   11.53097    3.21090    4.39426
     332      444        3    -0.09237    9.43549   14.07120    4.39426
     333      444        3    -0.09237    1.87210    3.12425    4.34156
     334      444        3    -0.09237   -0.22336   13.98395    4.34170
     335      444        3    -0.09237   12.91854    3.12387    4.33389
     336      444        3    -0.09237   10.82310   13.98428    4.33376
     337      444        3    -0.03968    2.51558    2.84500    3.12517
     338      444        3    -0.03968    0.42019   13.70531    3.12517
     339      444        3    -0.03968   13.56095    2.84688    3.11654
     340      444        3    -0.03968   11.46554   13.70781    3.11641
     341      444        3    -0.09237    1.74219    2.66546    1.96764
     342      444        3    -0.09237   -0.35308   13.52601    1.96709
     343      444        3    -0.09237   12.78897    2.67158    1.95778
     344      444        3    -0.09237   10.69359   13.53292    1.95751
     345      444        3    -0.09237    0.35407    2.76112    2.02691
     346      444        3    -0.09237   -1.74128   13.62145    2.02691
     347      444        3    -0.09237   11.40094    2.76807    2.01678
     348      444        3    -0.09237    9.30557   13.62931    2.01637
     349      444        3     0.66582    4.01726    2.77067    3.06028
     350      444        3     0.66582    1.92200   13.63134    3.05946
     351      444        3     0.66582   15.06169    2.77071    3.05398
     352      444        3     0.66582   12.96622   13.63166    3.05453
     353      444        3     0.12850    5.59373    0.70192   12.74953
     354      444        3     0.12850    3.49914   11.56277   12.74953
     355      444        3     0.12850   16.64660    0.70480   12.74926
     356      444        3     0.12850   14.55108   11.56588   12.74843
     357      444        3    -0.03968    5.85173    0.78541   11.37818
     358      444        3    -0.03968    3.75750   11.64643   11.37818
     359      444        3    -0.03968   16.90193    0.78864   11.37750
     360      444        3    -0.03968   14.80655   11.64976   11.37736
     361      444        3    -0.03968    5.92182    2.07497   10.81420
     362      444        3    -0.03968    3.82771   12.93606   10.81447
     363      444        3    -0.03968   16.97547    2.07856   10.81475
     364      444        3    -0.03968   14.88188   12.93979   10.81502
     365      444        3    -0.09237    5.72444    3.18823   11.63731
     366      444        3    -0.09237    3.63030   14.04924   11.63758
     367      444        3    -0.09237   16.78423    3.19181   11.63923
     368      444        3    -0.09237   14.69232   14.05301   11.63991
     369      444        3     0.12850    5.46099    3.00684   12.98676
     370      444        3     0.12850    3.36660   13.86773   12.98662