Created on Tue Feb 06 14:57:41 2018 

         848 atoms
        1024 bonds
        1824 angles
        1920 dihedrals
        1152 impropers

           5 atom types
           5 bond types
           8 angle types
           3 dihedral types
           1 improper types
           0.000000  36.788000 xlo xhi
           0.000000  31.990467 ylo yhi
           0.000000  30.191278 zlo zhi
          18.164992  18.167225  10.573344 xy xz yz

Masses

    1    65.380000000 # Zn3f2
    2     1.007940000 # H_
    3    12.010700000 # C_R
    4    15.999400000 # O_2
    5    15.999400000 # O_3_f

Bond Coeffs

    1      122.127512        2.014866  # Zn3f2 O_2
    2      357.440381        1.081418  # H_ C_R
    3      462.655054        1.379256  # C_R C_R
    4      714.557442        1.269010  # C_R O_2
    5      391.669513        1.458000  # C_R C_R

Angle Coeffs

    1                      fourier       32.394397        0.343737        0.374972        0.281246 # O_2 Zn3f2 O_2
    2              cosine/periodic      117.010657              -1               3 # C_R C_R C_R
    3              cosine/periodic       76.817955              -1               3 # H_ C_R C_R
    4              cosine/periodic      148.862838              -1               3 # O_2 C_R C_R
    5              cosine/periodic      256.805977              -1               3 # O_2 C_R O_2
    6              cosine/periodic      101.626578              -1               3 # C_R C_R C_R
    7              cosine/periodic       33.013732              -1               3 # Zn3f2 O_2 C_R
    8                      fourier       10.476826        0.343737        0.374972        0.281246 # Zn3f2 O_3_f Zn3f2

Dihedral Coeffs

    1        1.497136              -1               2 # H_ C_R C_R H_
    2        2.245703              -1               2 # C_R C_R O_2 Zn3f2
    3        0.555556              -1               2 # O_2 C_R C_R C_R

Improper Coeffs

    1        2.000000        1.000000       -1.000000        0.000000               0 # C_R C_R H_ C_R

Pair Coeffs

    1        0.124000        2.461553 # Zn3f2 Zn3f2
    2        0.044000        2.571134 # H_ H_
    3        0.105000        3.430851 # C_R C_R
    4        0.060000        3.118146 # O_2 O_2
    5        0.060000        3.118146 # O_3_f O_3_f

Atoms

       1      444        1     1.12900    7.53321    4.38583    3.11076
       2      444        1     1.12900   29.02687   16.89638   11.98488
       3      444        1     1.12900    9.13976    7.17531    3.12374
       4      444        1     1.12900    9.14006    5.32006    5.73936
       5      444        1     1.12900   10.75323    4.40486    3.12434
       6      444        1     1.12900   25.80685   16.87735   11.97129
       7      444        1     1.12900   27.42001   15.96213    9.35628
       8      444        1     1.12900   27.42030   14.10690   11.97190
       9      444        2     0.12128    9.09959    8.37507    8.57327
      10      444        2     0.12128   13.93681    2.54971    5.07017
      11      444        2     0.12128   11.77556    9.33995    0.73048
      12      444        2     0.12128   24.78385   17.50586    6.52222
      13      444        2     0.12128   27.46081   10.42258   10.02547
      14      444        2     0.12128   22.62362   15.65385   14.36531
      15      444        2     0.12128   27.46058   12.90714    6.52237
      16      444        2     0.12128   22.62331   18.73253   10.02547
      17      444        2     0.12128   24.78451   11.94228   14.36516
      18      444        2     0.12128   11.77626    3.77639    8.57342
      19      444        2     0.12128    9.09933   10.85962    5.07017
      20      444        2     0.12128   13.93646    5.62836    0.73033
      21      444        2     0.12128    6.50241    9.33552    0.74089
      22      444        2     0.12128    4.34467    5.62214    0.71055
      23      444        2     0.12128    6.50291    3.78479    8.56557
      24      444        2     0.12128    4.34514    2.52909    5.07078
      25      444        2     0.12128   11.32854    1.04456    0.74089
      26      444        2     0.12128    7.03410    1.00216    0.71085
      27      444        2     0.12128   25.23160   20.23765   14.35490
      28      444        2     0.12128   29.52605   20.28005   14.38494
      29      444        2     0.12128   30.05717   17.49745    6.53007
      30      444        2     0.12128   32.21491   18.75313   10.02486
      31      444        2     0.12128   30.05768   11.94668   14.35474
      32      444        2     0.12128   32.21543   15.66007   14.38509
      33      444        3    -0.05783    9.09242    9.37189    8.13595
      34      444        3    -0.05783   13.86097    2.58455    6.15555
      35      444        3    -0.05783   12.63891    8.76252    0.40456
      36      444        3    -0.05783   23.92047   18.00409    6.95969
      37      444        3    -0.05783   27.46772   10.50574    8.94009
      38      444        3    -0.05783   22.69949   14.61794   14.69108
      39      444        3    -0.05783   27.46717   11.91009    6.95909
      40      444        3    -0.05783   22.69904   18.69755    8.94009
      41      444        3    -0.05783   23.92106   12.51963   14.69092
      42      444        3    -0.05783   12.63954    3.27801    8.13595
      43      444        3    -0.05783    9.09225   10.77647    6.15555
      44      444        3    -0.05783   13.86057    6.66427    0.40456
      45      444        3     0.68981    6.57871    6.80217    1.67501
      46      444        3    -0.12262    5.52553    7.41892    0.80973
      47      444        3    -0.05783    5.63968    8.75957    0.41060
      48      444        3    -0.05783    4.42047    6.66088    0.39369
      49      444        3     0.68981    6.57896    3.82945    5.86586
      50      444        3    -0.12262    5.52600    3.21628    6.73386
      51      444        3    -0.05783    5.64015    3.28280    8.13111
      52      444        3    -0.05783    4.41367    2.56906    6.14393
      53      444        3     0.68981    9.16339    2.36205    1.67546
      54      444        3    -0.12262    9.17959    1.14182    0.80973
      55      444        3    -0.05783   10.40166    0.57887    0.41060
      56      444        3    -0.05783    7.97464    0.55510    0.39369
      57      444        3     0.68981   27.39668   18.92004   13.42032
      58      444        3    -0.12262   27.38004   20.14024   14.28500
      59      444        3    -0.05783   26.15846   20.70328   14.68519
      60      444        3    -0.05783   28.58537   20.72700   14.70194
      61      444        3     0.68981   29.98104   17.45291    9.22978
      62      444        3    -0.12262   31.03418   18.06577    8.36178
      63      444        3    -0.05783   30.91987   17.99949    6.96452
      64      444        3    -0.05783   32.13919   18.70906    8.93979
      65      444        3     0.68981   29.98144   14.48003   13.42063
      66      444        3    -0.12262   31.03459   13.86334   14.28606
      67      444        3    -0.05783   30.92044   12.52264   14.68504
      68      444        3    -0.05783   32.13967   14.62133   14.70194
      69      444        3     0.68981    9.12110    8.28077    5.87371
      70      444        3    -0.12262    9.10197    9.50029    6.73869
      71      444        3     0.68981   11.70498    3.84185    5.87386
      72      444        3    -0.12262   12.75597    3.22304    6.73869
      73      444        3     0.68981   11.70468    6.81385    1.68422
      74      444        3    -0.12262   12.75556    7.42566    0.81441
      75      444        3     0.68981   24.85490   17.44001    9.22177
      76      444        3    -0.12262   23.80437   18.05960    8.35695
      77      444        3     0.68981   27.43860   13.00142    9.22193
      78      444        3    -0.12262   27.45861   11.78190    8.35695
      79      444        3     0.68981   24.85522   14.46825   13.41112
      80      444        3    -0.12262   23.80480   13.85672   14.28168
      81      444        4    -0.61646    9.12914    8.46967    4.61066
      82      444        4    -0.61646   10.72637    4.40582    6.46984
      83      444        4    -0.61646   11.87344    5.59362    2.02100
      84      444        4    -0.61646   24.68632   17.52560   10.48468
      85      444        4    -0.61646   27.43122   14.13099    8.62625
      86      444        4    -0.61646   25.83394   13.71957   13.07584
      87      444        4    -0.61646   27.43106   12.81252   10.48498
      88      444        4    -0.61646   25.83370   16.87648    8.62565
      89      444        4    -0.61646   24.68673   15.68864   13.07479
      90      444        4    -0.61646   11.87381    3.75670    4.61096
      91      444        4    -0.61646    9.12897    7.15122    6.46939
      92      444        4    -0.61646   10.71886    7.55841    2.00772
      93      444        5    -1.28300    9.13698    5.31882    3.77270
      94      444        5    -1.28300   27.42310   15.96339   11.32294
      95      444        4    -0.61646    6.41505    5.57855    2.00364
      96      444        4    -0.61646    7.55491    7.55239    2.01376
      97      444        4    -0.61646    6.41530    3.73514    4.60236
      98      444        4    -0.61646    7.55524    4.39709    6.46199
      99      444        4    -0.61646    8.01858    2.82455    2.00334
     100      444        4    -0.61646   10.29789    2.84037    2.01436
     101      444        4    -0.61646   28.54144   18.45768   13.09215
     102      444        4    -0.61646   26.26224   18.44190   13.08128
     103      444        4    -0.61646   30.14481   17.54699   10.49328
     104      444        4    -0.61646   29.00487   16.88504    8.63365
     105      444        4    -0.61646   30.14496   15.70364   13.09199
     106      444        4    -0.61646   29.00514   13.72981   13.08188
     107      444        1     1.12900   16.61683    9.67251   18.20640
     108      444        1     1.12900   38.11048   22.18305   27.08052
     109      444        1     1.12900   18.22337   12.46198   18.21938
     110      444        1     1.12900   18.22368   10.60673   20.83500
     111      444        1     1.12900   19.83684    9.69153   18.21998
     112      444        1     1.12900   34.89046   22.16402   27.06693
     113      444        1     1.12900   36.50362   21.24880   24.45192
     114      444        1     1.12900   36.50391   19.39357   27.06754
     115      444        2     0.12128   18.18320   13.66174   23.66891
     116      444        2     0.12128   23.02042    7.83638   20.16581
     117      444        2     0.12128   20.85917   14.62662   15.82612
     118      444        2     0.12128   33.86746   22.79254   21.61786
     119      444        2     0.12128   36.54442   15.70925   25.12111
     120      444        2     0.12128   31.70723   20.94052   29.46095
     121      444        2     0.12128   36.54420   18.19382   21.61801
     122      444        2     0.12128   31.70692   24.01921   25.12111
     123      444        2     0.12128   33.86812   17.22895   29.46080
     124      444        2     0.12128   20.85987    9.06307   23.66906
     125      444        2     0.12128   18.18294   16.14629   20.16581
     126      444        2     0.12128   23.02007   10.91503   15.82597
     127      444        2     0.12128   15.58602   14.62219   15.83653
     128      444        2     0.12128   13.42828   10.90881   15.80619
     129      444        2     0.12128   15.58652    9.07147   23.66121
     130      444        2     0.12128   13.42876    7.81577   20.16642
     131      444        2     0.12128   20.41215    6.33124   15.83653
     132      444        2     0.12128   16.11771    6.28884   15.80649
     133      444        2     0.12128   34.31521   25.52432   29.45053
     134      444        2     0.12128   38.60966   25.56672   29.48058
     135      444        2     0.12128   39.14078   22.78412   21.62571
     136      444        2     0.12128   41.29852   24.03980   25.12050
     137      444        2     0.12128   39.14129   17.23335   29.45038
     138      444        2     0.12128   41.29904   20.94674   29.48073
     139      444        3    -0.05783   18.17604   14.65856   23.23158
     140      444        3    -0.05783   22.94459    7.87122   21.25119
     141      444        3    -0.05783   21.72252   14.04919   15.50020
     142      444        3    -0.05783   33.00408   23.29076   22.05533
     143      444        3    -0.05783   36.55133   15.79241   24.03573
     144      444        3    -0.05783   31.78310   19.90461   29.78671
     145      444        3    -0.05783   36.55078   17.19677   22.05473
     146      444        3    -0.05783   31.78265   23.98422   24.03573
     147      444        3    -0.05783   33.00467   17.80631   29.78656
     148      444        3    -0.05783   21.72316    8.56468   23.23158
     149      444        3    -0.05783   18.17586   16.06315   21.25119
     150      444        3    -0.05783   22.94419   11.95094   15.50020
     151      444        3     0.68981   15.66232   12.08884   16.77065
     152      444        3    -0.12262   14.60914   12.70559   15.90537
     153      444        3    -0.05783   14.72329   14.04624   15.50624
     154      444        3    -0.05783   13.50408   11.94755   15.48933
     155      444        3     0.68981   15.66257    9.11612   20.96150
     156      444        3    -0.12262   14.60961    8.50295   21.82950
     157      444        3    -0.05783   14.72376    8.56947   23.22675
     158      444        3    -0.05783   13.49728    7.85573   21.23956
     159      444        3     0.68981   18.24701    7.64872   16.77110
     160      444        3    -0.12262   18.26320    6.42849   15.90537
     161      444        3    -0.05783   19.48527    5.86554   15.50624
     162      444        3    -0.05783   17.05826    5.84177   15.48933
     163      444        3     0.68981   36.48029   24.20671   28.51596
     164      444        3    -0.12262   36.46365   25.42691   29.38064
     165      444        3    -0.05783   35.24208   25.98995   29.78083
     166      444        3    -0.05783   37.66899   26.01367   29.79758
     167      444        3     0.68981   39.06465   22.73958   24.32541
     168      444        3    -0.12262   40.11779   23.35244   23.45742
     169      444        3    -0.05783   40.00348   23.28617   22.06016
     170      444        3    -0.05783   41.22280   23.99573   24.03543
     171      444        3     0.68981   39.06505   19.76670   28.51627
     172      444        3    -0.12262   40.11820   19.15001   29.38170
     173      444        3    -0.05783   40.00405   17.80932   29.78068
     174      444        3    -0.05783   41.22328   19.90801   29.79758
     175      444        3     0.68981   18.20471   13.56745   20.96935
     176      444        3    -0.12262   18.18559   14.78696   21.83433
     177      444        3     0.68981   20.78859    9.12852   20.96950
     178      444        3    -0.12262   21.83958    8.50971   21.83433
     179      444        3     0.68981   20.78829   12.10052   16.77986
     180      444        3    -0.12262   21.83917   12.71234   15.91005
     181      444        3     0.68981   33.93851   22.72668   24.31741
     182      444        3    -0.12262   32.88799   23.34627   23.45258
     183      444        3     0.68981   36.52221   18.28809   24.31756
     184      444        3    -0.12262   36.54222   17.06858   23.45258
     185      444        3     0.68981   33.93883   19.75492   28.50676
     186      444        3    -0.12262   32.88841   19.14339   29.37732
     187      444        4    -0.61646   18.21276   13.75635   19.70630
     188      444        4    -0.61646   19.80998    9.69249   21.56548
     189      444        4    -0.61646   20.95705   10.88029   17.11664
     190      444        4    -0.61646   33.76993   22.81227   25.58031
     191      444        4    -0.61646   36.51484   19.41766   23.72189
     192      444        4    -0.61646   34.91755   19.00624   28.17148
     193      444        4    -0.61646   36.51467   18.09919   25.58062
     194      444        4    -0.61646   34.91731   22.16316   23.72129
     195      444        4    -0.61646   33.77034   20.97531   28.17042
     196      444        4    -0.61646   20.95743    9.04338   19.70660
     197      444        4    -0.61646   18.21258   12.43790   21.56503
     198      444        4    -0.61646   19.80247   12.84508   17.10336
     199      444        5    -1.28300   18.22060   10.60549   18.86834
     200      444        5    -1.28300   36.50671   21.25006   26.41858
     201      444        4    -0.61646   15.49866   10.86522   17.09928
     202      444        4    -0.61646   16.63852   12.83906   17.10940
     203      444        4    -0.61646   15.49891    9.02181   19.69800
     204      444        4    -0.61646   16.63885    9.68376   21.55763
     205      444        4    -0.61646   17.10220    8.11122   17.09898
     206      444        4    -0.61646   19.38150    8.12704   17.11000
     207      444        4    -0.61646   37.62505   23.74435   28.18778
     208      444        4    -0.61646   35.34586   23.72858   28.17692
     209      444        4    -0.61646   39.22842   22.83367   25.58892
     210      444        4    -0.61646   38.08848   22.17172   23.72929
     211      444        4    -0.61646   39.22858   20.99032   28.18763
     212      444        4    -0.61646   38.08875   19.01648   28.17752
     213      444        1     1.12900   16.61571   20.38107    3.11076
     214      444        1     1.12900   38.10936   32.89161   11.98488
     215      444        1     1.12900   18.22226   23.17054    3.12374
     216      444        1     1.12900   18.22256   21.31530    5.73936
     217      444        1     1.12900   19.83572   20.40009    3.12434
     218      444        1     1.12900   34.88935   32.87258   11.97129
     219      444        1     1.12900   36.50250   31.95737    9.35628
     220      444        1     1.12900   36.50280   30.10213   11.97190
     221      444        2     0.12128   18.18208   24.37030    8.57327
     222      444        2     0.12128   23.01930   18.54494    5.07017
     223      444        2     0.12128   20.85806   25.33518    0.73048
     224      444        2     0.12128   33.86634   33.50110    6.52222
     225      444        2     0.12128   36.54331   26.41781   10.02547
     226      444        2     0.12128   31.70612   31.64908   14.36531
     227      444        2     0.12128   36.54308   28.90238    6.52237
     228      444        2     0.12128   31.70580   34.72777   10.02547
     229      444        2     0.12128   33.86701   27.93751   14.36516
     230      444        2     0.12128   20.85875   19.77163    8.57342
     231      444        2     0.12128   18.18183   26.85485    5.07017
     232      444        2     0.12128   23.01896   21.62359    0.73033
     233      444        2     0.12128   15.58491   25.33075    0.74089
     234      444        2     0.12128   13.42716   21.61737    0.71055
     235      444        2     0.12128   15.58540   19.78003    8.56557
     236      444        2     0.12128   13.42764   18.52433    5.07078
     237      444        2     0.12128   20.41104   17.03980    0.74089
     238      444        2     0.12128   16.11659   16.99740    0.71085
     239      444        2     0.12128   34.31410   36.23288   14.35490
     240      444        2     0.12128   38.60854   36.27528   14.38494
     241      444        2     0.12128   39.13967   33.49268    6.53007
     242      444        2     0.12128   41.29740   34.74837   10.02486
     243      444        2     0.12128   39.14017   27.94191   14.35474
     244      444        2     0.12128   41.29793   31.65530   14.38509
     245      444        3    -0.05783   18.17492   25.36712    8.13595
     246      444        3    -0.05783   22.94347   18.57978    6.15555
     247      444        3    -0.05783   21.72140   24.75776    0.40456
     248      444        3    -0.05783   33.00297   33.99932    6.95969
     249      444        3    -0.05783   36.55021   26.50097    8.94009
     250      444        3    -0.05783   31.78198   30.61318   14.69108
     251      444        3    -0.05783   36.54967   27.90533    6.95909
     252      444        3    -0.05783   31.78154   34.69279    8.94009
     253      444        3    -0.05783   33.00356   28.51487   14.69092
     254      444        3    -0.05783   21.72204   19.27324    8.13595
     255      444        3    -0.05783   18.17475   26.77171    6.15555
     256      444        3    -0.05783   22.94307   22.65950    0.40456
     257      444        3     0.68981   15.66120   22.79740    1.67501
     258      444        3    -0.12262   14.60802   23.41416    0.80973
     259      444        3    -0.05783   14.72217   24.75480    0.41060
     260      444        3    -0.05783   13.50296   22.65611    0.39369
     261      444        3     0.68981   15.66146   19.82468    5.86586
     262      444        3    -0.12262   14.60849   19.21151    6.73386
     263      444        3    -0.05783   14.72264   19.27803    8.13111
     264      444        3    -0.05783   13.49617   18.56429    6.14393
     265      444        3     0.68981   18.24589   18.35728    1.67546
     266      444        3    -0.12262   18.26208   17.13705    0.80973
     267      444        3    -0.05783   19.48416   16.57410    0.41060
     268      444        3    -0.05783   17.05714   16.55033    0.39369
     269      444        3     0.68981   36.47917   34.91527   13.42032
     270      444        3    -0.12262   36.46253   36.13547   14.28500
     271      444        3    -0.05783   35.24096   36.69852   14.68519
     272      444        3    -0.05783   37.66787   36.72224   14.70194
     273      444        3     0.68981   39.06353   33.44814    9.22978
     274      444        3    -0.12262   40.11667   34.06100    8.36178
     275      444        3    -0.05783   40.00236   33.99473    6.96452
     276      444        3    -0.05783   41.22168   34.70429    8.93979
     277      444        3     0.68981   39.06393   30.47526   13.42063
     278      444        3    -0.12262   40.11708   29.85857   14.28606
     279      444        3    -0.05783   40.00293   28.51788   14.68504
     280      444        3    -0.05783   41.22216   30.61657   14.70194
     281      444        3     0.68981   18.20360   24.27601    5.87371
     282      444        3    -0.12262   18.18447   25.49552    6.73869
     283      444        3     0.68981   20.78748   19.83708    5.87386
     284      444        3    -0.12262   21.83847   19.21827    6.73869
     285      444        3     0.68981   20.78718   22.80909    1.68422
     286      444        3    -0.12262   21.83805   23.42090    0.81441
     287      444        3     0.68981   33.93739   33.43525    9.22177
     288      444        3    -0.12262   32.88687   34.05483    8.35695
     289      444        3     0.68981   36.52110   28.99665    9.22193
     290      444        3    -0.12262   36.54111   27.77714    8.35695
     291      444        3     0.68981   33.93771   30.46349   13.41112
     292      444        3    -0.12262   32.88730   29.85195   14.28168
     293      444        4    -0.61646   18.21164   24.46491    4.61066
     294      444        4    -0.61646   19.80887   20.40105    6.46984
     295      444        4    -0.61646   20.95594   21.58885    2.02100
     296      444        4    -0.61646   33.76881   33.52084   10.48468
     297      444        4    -0.61646   36.51372   30.12622    8.62625
     298      444        4    -0.61646   34.91643   29.71480   13.07584
     299      444        4    -0.61646   36.51355   28.80775   10.48498
     300      444        4    -0.61646   34.91619   32.87172    8.62565
     301      444        4    -0.61646   33.76922   31.68388   13.07479
     302      444        4    -0.61646   20.95631   19.75194    4.61096
     303      444        4    -0.61646   18.21146   23.14646    6.46939
     304      444        4    -0.61646   19.80135   23.55365    2.00772
     305      444        5    -1.28300   18.21948   21.31406    3.77270
     306      444        5    -1.28300   36.50559   31.95862   11.32294
     307      444        4    -0.61646   15.49755   21.57378    2.00364
     308      444        4    -0.61646   16.63741   23.54762    2.01376
     309      444        4    -0.61646   15.49779   19.73037    4.60236
     310      444        4    -0.61646   16.63773   20.39232    6.46199
     311      444        4    -0.61646   17.10108   18.81978    2.00334
     312      444        4    -0.61646   19.38039   18.83560    2.01436
     313      444        4    -0.61646   37.62394   34.45291   13.09215
     314      444        4    -0.61646   35.34474   34.43714   13.08128
     315      444        4    -0.61646   39.22730   33.54223   10.49328
     316      444        4    -0.61646   38.08737   32.88028    8.63365
     317      444        4    -0.61646   39.22746   31.69888   13.09199
     318      444        4    -0.61646   38.08764   29.72504   13.08188
     319      444        1     1.12900   25.69932   25.66774   18.20640
     320      444        1     1.12900   47.19297   38.17828   27.08052
     321      444        1     1.12900   27.30587   28.45722   18.21938
     322      444        1     1.12900   27.30617   26.60197   20.83500
     323      444        1     1.12900   28.91934   25.68677   18.21998
     324      444        1     1.12900   43.97296   38.15926   27.06693
     325      444        1     1.12900   45.58612   37.24404   24.45192
     326      444        1     1.12900   45.58641   35.38880   27.06754
     327      444        2     0.12128   27.26570   29.65697   23.66891
     328      444        2     0.12128   32.10292   23.83161   20.16581
     329      444        2     0.12128   29.94167   30.62185   15.82612
     330      444        2     0.12128   42.94996   38.78777   21.61786
     331      444        2     0.12128   45.62692   31.70448   25.12111
     332      444        2     0.12128   40.78973   36.93576   29.46095
     333      444        2     0.12128   45.62669   34.18905   21.61801
     334      444        2     0.12128   40.78942   40.01444   25.12111
     335      444        2     0.12128   42.95062   33.22418   29.46080
     336      444        2     0.12128   29.94237   25.05830   23.66906
     337      444        2     0.12128   27.26544   32.14152   20.16581
     338      444        2     0.12128   32.10257   26.91027   15.82597
     339      444        2     0.12128   24.66852   30.61742   15.83653
     340      444        2     0.12128   22.51077   26.90404   15.80619
     341      444        2     0.12128   24.66902   25.06670   23.66121
     342      444        2     0.12128   22.51125   23.81100   20.16642
     343      444        2     0.12128   29.49465   22.32647   15.83653
     344      444        2     0.12128   25.20021   22.28407   15.80649
     345      444        2     0.12128   43.39771   41.51956   29.45053
     346      444        2     0.12128   47.69215   41.56196   29.48058
     347      444        2     0.12128   48.22328   38.77935   21.62571
     348      444        2     0.12128   50.38102   40.03504   25.12050
     349      444        2     0.12128   48.22379   33.22858   29.45038
     350      444        2     0.12128   50.38154   36.94198   29.48073
     351      444        3    -0.05783   27.25853   30.65380   23.23158
     352      444        3    -0.05783   32.02708   23.86645   21.25119
     353      444        3    -0.05783   30.80502   30.04443   15.50020
     354      444        3    -0.05783   42.08658   39.28599   22.05533
     355      444        3    -0.05783   45.63383   31.78764   24.03573
     356      444        3    -0.05783   40.86559   35.89985   29.78671
     357      444        3    -0.05783   45.63328   33.19200   22.05473
     358      444        3    -0.05783   40.86515   39.97946   24.03573
     359      444        3    -0.05783   42.08717   33.80154   29.78656
     360      444        3    -0.05783   30.80565   24.55991   23.23158
     361      444        3    -0.05783   27.25836   32.05838   21.25119
     362      444        3    -0.05783   32.02668   27.94617   15.50020
     363      444        3     0.68981   24.74481   28.08407   16.77065
     364      444        3    -0.12262   23.69164   28.70083   15.90537
     365      444        3    -0.05783   23.80579   30.04147   15.50624
     366      444        3    -0.05783   22.58657   27.94278   15.48933
     367      444        3     0.68981   24.74507   25.11135   20.96150
     368      444        3    -0.12262   23.69210   24.49818   21.82950
     369      444        3    -0.05783   23.80626   24.56470   23.22675
     370      444        3    -0.05783   22.57978   23.85096   21.23956
     371      444        3     0.68981   27.32950   23.64395   16.77110
     372      444        3    -0.12262   27.34570   22.42372   15.90537
     373      444        3    -0.05783   28.56777   21.86077   15.50624
     374      444        3    -0.05783   26.14075   21.83700   15.48933
     375      444        3     0.68981   45.56279   40.20195   28.51596
     376      444        3    -0.12262   45.54615   41.42214   29.38064
     377      444        3    -0.05783   44.32457   41.98519   29.78083
     378      444        3    -0.05783   46.75148   42.00891   29.79758
     379      444        3     0.68981   48.14714   38.73481   24.32541
     380      444        3    -0.12262   49.20029   39.34768   23.45742
     381      444        3    -0.05783   49.08597   39.28140   22.06016
     382      444        3    -0.05783   50.30529   39.99096   24.03543
     383      444        3     0.68981   48.14755   35.76193   28.51627
     384      444        3    -0.12262   49.20070   35.14525   29.38170