Created on Tue Feb 06 14:25:18 2018 

        3712 atoms
        4096 bonds
        7808 angles
        9856 dihedrals
        3072 impropers

           7 atom types
          14 bond types
          32 angle types
           6 dihedral types
           1 improper types
           0.000000  37.330000 xlo xhi
           0.000000  39.047917 ylo yhi
           0.000000  32.954753 zlo zhi
          -0.080419   0.028553 -20.766361 xy xz yz

Masses

    1    65.380000000 # Zn3f2
    2     1.007940000 # H_
    3    12.010700000 # C_R
    4    12.010700000 # C_3
    5    14.006700000 # N_3
    6    14.006700000 # N_R
    7    15.999400000 # O_R

Bond Coeffs

    1      154.048673        1.928536  # Zn3f2 N_R
    2      153.811316        1.929528  # Zn3f2 N_3
    3      148.759211        1.886642  # Zn3f2 O_R
    4      357.440381        1.081418  # H_ C_R
    5      331.069389        1.109401  # H_ C_3
    6      529.459447        1.043423  # H_ N_R
    7      527.945261        1.044419  # H_ N_3
    8      663.718927        1.345073  # C_R N_R
    9      369.943935        1.486000  # C_3 C_R
   10      349.795899        1.514000  # C_3 C_3
   11      462.655054        1.379256  # C_R C_R
   12      528.634538        1.451071  # C_3 N_3
   13      646.680887        1.311940  # C_R O_R
   14      529.724731        1.450075  # C_3 N_R

Angle Coeffs

    1                      fourier       47.099941        0.343737        0.374972        0.281246 # O_R Zn3f2 N_R
    2                      fourier       49.333327        0.343737        0.374972        0.281246 # N_R Zn3f2 N_R
    3                      fourier       47.038551        0.343737        0.374972        0.281246 # N_3 Zn3f2 O_R
    4                      fourier       49.269965        0.343737        0.374972        0.281246 # N_3 Zn3f2 N_R
    5              cosine/periodic      234.844275              -1               3 # N_R C_R N_R
    6              cosine/periodic      109.704024              -1               3 # H_ C_R N_R
    7                      fourier       69.847816        0.343737        0.374972        0.281246 # H_ C_3 C_3
    8                      fourier       61.342703        0.343737        0.374972        0.281246 # H_ C_3 H_
    9                      fourier       97.888497        0.343737        0.374972        0.281246 # C_R C_3 C_3
   10                      fourier       73.868412        0.343737        0.374972        0.281246 # H_ C_3 C_R
   11              cosine/periodic      165.695700              -1               3 # N_R C_R C_R
   12              cosine/periodic       76.817955              -1               3 # H_ C_R C_R
   13              cosine/periodic      136.632200              -1               3 # C_3 C_R N_R
   14              cosine/periodic       96.739224              -1               3 # C_3 C_R C_R
   15                      fourier      105.465539        0.343737        0.374972        0.281246 # H_ C_3 N_3
   16                      fourier      138.055467        0.343737        0.374972        0.281246 # C_3 C_3 N_3
   17              cosine/periodic      130.962624              -1               3 # O_R C_R C_3
   18              cosine/periodic      217.450257              -1               3 # O_R C_R O_R
   19                      fourier      145.046652        0.343737        0.374972        0.281246 # C_R C_3 N_R
   20                      fourier      138.285829        0.343737        0.374972        0.281246 # C_3 C_3 N_R
   21                      fourier      105.679036        0.343737        0.374972        0.281246 # H_ C_3 N_R
   22              cosine/periodic      225.881601              -1               3 # N_R C_R O_R
   23                      fourier       25.573264        0.317506        0.313225        0.272502 # Zn3f2 N_3 H_
   24                      fourier       95.475092        0.317506        0.313225        0.272502 # C_3 N_3 H_
   25                      fourier       38.701705        0.317506        0.313225        0.272502 # Zn3f2 N_3 C_3
   26                      fourier       88.940331        0.317506        0.313225        0.272502 # H_ N_3 H_
   27              cosine/periodic       89.115099              -1               3 # H_ N_R C_R
   28              cosine/periodic       71.655168              -1               3 # H_ N_R C_3
   29              cosine/periodic      109.494736              -1               3 # C_R N_R C_3
   30              cosine/periodic      132.654363              -1               3 # C_R N_R C_R
   31              cosine/periodic       33.704159              -1               3 # Zn3f2 N_R C_R
   32              cosine/periodic       46.721183              -1               3 # Zn3f2 O_R C_R

Dihedral Coeffs

    1        1.497136              -1               2 # N_R C_R N_R C_R
    2        0.416667              -1               2 # H_ C_3 C_R N_R
    3        0.066219               1               3 # H_ C_3 C_3 H_
    4        0.030516               1               3 # H_ C_3 N_3 H_
    5        2.245703              -1               2 # O_R C_R O_R Zn3f2
    6        0.083333               1               3 # O_R C_R C_3 C_3

Improper Coeffs

    1        2.000000        1.000000       -1.000000        0.000000               0 # N_R C_R H_ N_R

Pair Coeffs

    1        0.124000        2.461553 # Zn3f2 Zn3f2
    2        0.044000        2.571134 # H_ H_
    3        0.105000        3.430851 # C_R C_R
    4        0.105000        3.430851 # C_3 C_3
    5        0.069000        3.260689 # N_3 N_3
    6        0.069000        3.260689 # N_R N_R
    7        0.060000        3.118146 # O_R O_R

Atoms

       1      444        1     0.81467    5.30110    2.55349    2.26399
       2      444        1     0.81467    5.30818   -2.63814   10.50268
       3      444        1     0.81467    5.28090   12.31537    2.26383
       4      444        1     0.81467    5.28799    7.12378   10.50252
       5      444        1     0.81467   14.63340    2.55349    2.26399
       6      444        1     0.81467   14.64048   -2.63814   10.50268
       7      444        1     0.81467   14.61320   12.31539    2.26383
       8      444        1     0.81467   14.62028    7.12378   10.50252
       9      444        1     0.81467    0.63544    2.01667    5.97354
      10      444        1     0.81467    0.64252   -3.17496   14.21223
      11      444        1     0.81467    0.61524   11.77846    5.97354
      12      444        1     0.81467    0.62232    6.58687   14.21223
      13      444        1     0.81467    9.96773    2.01667    5.97354
      14      444        1     0.81467    9.97482   -3.17496   14.21223
      15      444        1     0.81467    9.94754   11.77848    5.97354
      16      444        1     0.81467    9.95462    6.58687   14.21223
      17      444        2     0.09710    2.34728    2.98176    3.45679
      18      444        2     0.09710    2.35436   -2.20896   11.69399
      19      444        2     0.09710    2.32708   12.74365    3.45662
      20      444        2     0.09710    2.33416    7.55208   11.69531
      21      444        2     0.09710   11.67957    2.98176    3.45679
      22      444        2     0.09710   11.68665   -2.20894   11.69399
      23      444        2     0.09710   11.65937   12.74367    3.45662
      24      444        2     0.09710   11.66645    7.55206   11.69531
      25      444        2     0.09710    4.09699   -1.00680    6.52125
      26      444        2     0.09710    4.10408   -6.19845   14.75994
      27      444        2     0.09710    4.07680    8.75499    6.52125
      28      444        2     0.09710    4.08386    3.56410   14.75879
      29      444        2     0.09710   13.42929   -1.00682    6.52125
      30      444        2     0.09710   13.43637   -6.19845   14.75994
      31      444        2     0.09710   13.40909    8.75499    6.52125
      32      444        2     0.09710   13.41617    3.56410   14.75879
      33      444        2     0.09710    2.34601   -0.73362    6.69476
      34      444        2     0.09710    2.35307   -5.92537   14.93361
      35      444        2     0.09710    2.32581    9.02806    6.69492
      36      444        2     0.09710    2.33287    3.83645   14.93361
      37      444        2     0.09710   11.67830   -0.73364    6.69476
      38      444        2     0.09710   11.68537   -5.92535   14.93361
      39      444        2     0.09710   11.65811    9.02806    6.69492
      40      444        2     0.09710   11.66517    3.83645   14.93361
      41      444        2     0.31562    5.63239    0.86784    7.80072
      42      444        2     0.31562    5.63945   -4.32381   16.03941
      43      444        2     0.31562    5.61219   10.62962    7.80072
      44      444        2     0.31562    5.61927    5.43801   16.03941
      45      444        2     0.31562   14.96468    0.86784    7.80072
      46      444        2     0.31562   14.97176   -4.32381   16.03941
      47      444        2     0.31562   14.94448   10.62962    7.80072
      48      444        2     0.31562   14.95157    5.43800   16.03941
      49      444        2     0.09710    5.36390    0.26398    4.55468
      50      444        2     0.09710    5.37099   -4.92746   12.79304
      51      444        2     0.09710    5.34371   10.02587    4.55451
      52      444        2     0.09710    5.35079    4.83428   12.79320
      53      444        2     0.09710   14.69620    0.26396    4.55468
      54      444        2     0.09710   14.70328   -4.92746   12.79304
      55      444        2     0.09710   14.67600   10.02587    4.55451
      56      444        2     0.09710   14.68308    4.83428   12.79320
      57      444        2     0.09710    5.55125   -0.51614    2.20055
      58      444        2     0.09710    5.55834   -5.70768   10.43908
      59      444        2     0.09710    5.53107    9.24577    2.20039
      60      444        2     0.09710    5.53812    4.05407   10.43924
      61      444        2     0.09710   14.88355   -0.51564    2.19973
      62      444        2     0.09710   14.89061   -5.70766   10.43908
      63      444        2     0.09710   14.86337    9.24577    2.20039
      64      444        2     0.09710   14.87043    4.05459   10.43842
      65      444        2     0.09710    7.15547   -0.00498    1.61989
      66      444        2     0.09710    7.16254   -5.19650    9.85841
      67      444        2     0.09710    7.13527    9.75691    1.61973
      68      444        2     0.09710    7.14234    4.56524    9.85858
      69      444        2     0.09710   16.48777   -0.00500    1.61989
      70      444        2     0.09710   16.49483   -5.19661    9.85858
      71      444        2     0.09710   16.46757    9.75693    1.61973
      72      444        2     0.09710   16.47465    4.56522    9.85858
      73      444        2     0.09710    2.67507    6.25075    0.05223
      74      444        2     0.09710    2.68215    1.05913    8.29092
      75      444        2     0.09710    2.66195   10.82103    8.29076
      76      444        2     0.09710    2.65471   16.04541    0.00000
      77      444        2     0.09710   12.00736    6.25075    0.05223
      78      444        2     0.09710   12.01445    1.05913    8.29092
      79      444        2     0.09710   11.99425   10.82103    8.29076
      80      444        2     0.09710   11.98701   16.04541    0.00000
      81      444        2     0.09710    6.38905    3.64334    7.52373
      82      444        2     0.09710    6.39610   -1.54820   15.76226
      83      444        2     0.09710    6.36883   13.40515    7.52373
      84      444        2     0.09710    6.37594    8.21354   15.76242
      85      444        2     0.09710   15.72133    3.64334    7.52373
      86      444        2     0.09710   15.72839   -1.54820   15.76226
      87      444        2     0.09710   15.70115   13.40515    7.52373
      88      444        2     0.09710   15.70821    8.21364   15.76226
      89      444        2     0.09710    6.81906    7.66426    0.51607
      90      444        2     0.09710    6.82612    2.47269    8.75476
      91      444        2     0.09710    6.79886   17.42610    0.51607
      92      444        2     0.09710    6.80594   12.23445    8.75476
      93      444        2     0.09710   16.15135    7.66428    0.51607
      94      444        2     0.09710   16.15842    2.47267    8.75476
      95      444        2     0.09710   16.13116   17.42608    0.51607
      96      444        2     0.09710   16.13824   12.23447    8.75476
      97      444        2     0.31562    6.19452    1.40804    0.08206
      98      444        2     0.31562    6.20158   -3.78359    8.32075
      99      444        2     0.31562    6.17432   11.16982    0.08206
     100      444        2     0.31562    6.18142    5.97821    8.32075
     101      444        2     0.31562   15.52679    1.40804    0.08206
     102      444        2     0.31562   15.53389   -3.78359    8.32075
     103      444        2     0.31562   15.50661   11.16982    0.08206
     104      444        2     0.31562   15.51371    5.97821    8.32075
     105      444        2     0.31562    4.64504    0.84776    0.39134
     106      444        2     0.31562    4.65210   -4.34387    8.63003
     107      444        2     0.31562    4.62484   10.60956    0.39134
     108      444        2     0.31562    4.63192    5.41795    8.63003
     109      444        2     0.31562   13.97731    0.84776    0.39134
     110      444        2     0.31562   13.98441   -4.34387    8.63003
     111      444        2     0.31562   13.95713   10.60956    0.39134
     112      444        2     0.31562   13.96422    5.41795    8.63003
     113      444        2     0.09710    7.01080    1.59129    4.78338
     114      444        2     0.09710    7.01788   -3.60098   13.02306
     115      444        2     0.09710    6.99060   11.35245    4.78437
     116      444        2     0.09710    6.99768    6.16086   13.02306
     117      444        2     0.09710   16.34309    1.59127    4.78338
     118      444        2     0.09710   16.35017   -3.60098   13.02306
     119      444        2     0.09710   16.32289   11.35245    4.78437
     120      444        2     0.09710   16.32998    6.16086   13.02306
     121      444        2     0.09710    8.76096    5.57513    1.71546
     122      444        2     0.09710    8.76804    0.38361    9.95398
     123      444        2     0.09710    8.74076   15.33704    1.71529
     124      444        2     0.09710    8.74787   10.14541    9.95398
     125      444        2     0.09710   18.09326    5.57515    1.71546
     126      444        2     0.09710   18.10034    0.38361    9.95398
     127      444        2     0.09710   18.07306   15.33704    1.71529
     128      444        2     0.09710   18.08014   10.14543    9.95398
     129      444        2     0.09710    7.00993    5.30215    1.54360
     130      444        2     0.09710    7.01701    0.11135    9.78097
     131      444        2     0.09710    6.98973   15.06404    1.54344
     132      444        2     0.09710    6.99683    9.87245    9.78212
     133      444        2     0.09710   16.34222    5.30215    1.54360
     134      444        2     0.09710   16.34930    0.11062    9.78212
     135      444        2     0.09710   16.32202   15.06404    1.54344
     136      444        2     0.09710   16.32912    9.87245    9.78212
     137      444        2     0.31562    0.96289    3.70320    0.44192
     138      444        2     0.31562    0.96998   -1.48847    8.68061
     139      444        2     0.31562    0.94271   13.46498    0.44192
     140      444        2     0.31562    0.94980    8.27356    8.68028
     141      444        2     0.31562   10.29519    3.70318    0.44192
     142      444        2     0.31562   10.30227   -1.48845    8.68061
     143      444        2     0.31562   10.27501   13.46498    0.44192
     144      444        2     0.31562   10.28209    8.27356    8.68028
     145      444        2     0.09710    0.69909    4.30148    3.67989
     146      444        2     0.09710    0.70617   -0.89016   11.91858
     147      444        2     0.09710    0.67891   14.06335    3.67973
     148      444        2     0.09710    0.68597    8.87199   11.91809
     149      444        2     0.09710   10.03138    4.30146    3.67989
     150      444        2     0.09710   10.03846   -0.89015   11.91858
     151      444        2     0.09710   10.01120   14.06337    3.67973
     152      444        2     0.09710   10.01828    8.87178   11.91842
     153      444        2     0.09710    0.86809    5.08701    6.03945
     154      444        2     0.09710    0.87518   -0.10464   14.27814
     155      444        2     0.09710    0.84790   14.84881    6.03945
     156      444        2     0.09710    0.85503    9.65724   14.27814
     157      444        2     0.09710   10.20039    5.08701    6.03945
     158      444        2     0.09710   10.20749   -0.10462   14.27814
     159      444        2     0.09710   10.18021   14.84881    6.03945
     160      444        2     0.09710   10.18731    9.65722   14.27814
     161      444        2     0.09710    2.47582    4.58603    6.61929
     162      444        2     0.09710    2.48290   -0.60560   14.85798
     163      444        2     0.09710    2.45564   14.34783    6.61929
     164      444        2     0.09710    2.46274    9.15626   14.85798
     165      444        2     0.09710   11.80811    4.58603    6.61929
     166      444        2     0.09710   11.81521   -0.60560   14.85798
     167      444        2     0.09710   11.78793   14.34783    6.61929
     168      444        2     0.09710   11.79502    9.15624   14.85798
     169      444        2     0.09710    7.35277   -1.68479    8.18728
     170      444        2     0.09710    7.35997   -6.87634   16.42597
     171      444        2     0.09710    7.33977    2.88544   16.42597
     172      444        2     0.09710    7.33259    8.07701    8.18728
     173      444        2     0.09710   16.69226   -6.87634   16.42597
     174      444        2     0.09710   16.68507   -1.68479    8.18728
     175      444        2     0.09710   16.67208    2.88544   16.42597
     176      444        2     0.09710   16.66489    8.07701    8.18728
     177      444        2     0.09710    1.72559    0.93235    0.71726
     178      444        2     0.09710    1.73271   -4.25920    8.95578
     179      444        2     0.09710    1.70543   10.69425    0.71710
     180      444        2     0.09710    1.71251    5.50264    8.95578
     181      444        2     0.09710   11.05790    0.93235    0.71726
     182      444        2     0.09710   11.06500   -4.25920    8.95578
     183      444        2     0.09710   11.03770   10.69446    0.71677
     184      444        2     0.09710   11.04481    5.50263    8.95578
     185      444        2     0.09710    2.17059   -3.08799    7.72575
     186      444        2     0.09710    2.17769   -8.27965   15.96460
     187      444        2     0.09710    2.15041    6.67385    7.72575
     188      444        2     0.09710    2.15750    1.48220   15.96444
     189      444        2     0.09710   11.50291   -3.08797    7.72575
     190      444        2     0.09710   11.50999   -8.27967   15.96460
     191      444        2     0.09710   11.48271    6.67456    7.72459
     192      444        2     0.09710   11.48979    1.48222   15.96444
     193      444        2     0.31562    1.52654    3.16389    8.15449
     194      444        2     0.31562    1.53363   -2.02680   16.39169
     195      444        2     0.31562    1.50636   12.92578    8.15432
     196      444        2     0.31562    1.51339    7.73407   16.39318
     197      444        2     0.31562   10.85884    3.16388    8.15449
     198      444        2     0.31562   10.86592   -2.02680   16.39169
     199      444        2     0.31562   10.83864   12.92661    8.15301
     200      444        2     0.31562   10.84570    7.73500   16.39169
     201      444        2     0.31562    9.30481    3.71479    7.84966
     202      444        2     0.31562    9.31190   -1.47590   16.08686
     203      444        2     0.31562    9.28464   13.47670    7.84949
     204      444        2     0.31562    9.29170    8.28509   16.08818
     205      444        2     0.31562   18.63713    3.71479    7.84966
     206      444        2     0.31562   18.64421   -1.47590   16.08686
     207      444        2     0.31562   18.61693   13.47668    7.84949
     208      444        2     0.31562   18.62397    8.28509   16.08818
     209      444        3     0.26465    2.88490    2.23599    4.02938
     210      444        3     0.26465    2.89199   -2.95566   12.26807
     211      444        3     0.26465    2.86472   11.99777    4.02938
     212      444        3     0.26465    2.87181    6.80618   12.26807
     213      444        3     0.26465   12.21720    2.23597    4.02938
     214      444        3     0.26465   12.22428   -2.95566   12.26807
     215      444        3     0.26465   12.19702   11.99777    4.02938
     216      444        3     0.26465   12.20410    6.80618   12.26807
     217      444        4    -0.30030    3.32424   -0.23428    6.65851
     218      444        4    -0.30030    3.33132   -5.42592   14.89720
     219      444        4    -0.30030    3.30404    9.52751    6.65851
     220      444        4    -0.30030    3.31112    4.33694   14.89555
     221      444        4    -0.30030   12.65653   -0.23430    6.65851
     222      444        4    -0.30030   12.66361   -5.42592   14.89720
     223      444        4    -0.30030   12.63635    9.52751    6.65851
     224      444        4    -0.30030   12.64341    4.33694   14.89555
     225      444        3    -0.07277    4.43165    0.81562    4.58961
     226      444        3    -0.07277    4.43873   -4.37600   12.82830
     227      444        3    -0.07277    4.41147   10.57741    4.58961
     228      444        3    -0.07277    4.41853    5.38584   12.82830
     229      444        3    -0.07277   13.76394    0.81562    4.58961
     230      444        3    -0.07277   13.77103   -4.37600   12.82830
     231      444        3    -0.07277   13.74376   10.57743    4.58961
     232      444        3    -0.07277   13.75085    5.38582   12.82830
     233      444        3     0.16810    3.40089    0.69133    5.49290
     234      444        3     0.16810    3.40797   -4.50032   13.73159
     235      444        3     0.16810    3.38069   10.45311    5.49290
     236      444        3     0.16810    3.38777    5.26152   13.73159
     237      444        3     0.16810   12.73318    0.69133    5.49290
     238      444        3     0.16810   12.74027   -4.50030   13.73159
     239      444        3     0.16810   12.71299   10.45311    5.49290
     240      444        3     0.16810   12.72007    5.26151   13.73159
     241      444        4     0.11282    6.12294   -0.21231    1.31341
     242      444        4     0.11282    6.13002   -5.40385    9.55194
     243      444        4     0.11282    6.10276    9.54958    1.31325
     244      444        4     0.11282    6.10983    4.35789    9.55210
     245      444        4     0.11282   15.45524   -0.21233    1.31341
     246      444        4     0.11282   15.46232   -5.40394    9.55210
     247      444        4     0.11282   15.43506    9.54958    1.31325
     248      444        4     0.11282   15.44212    4.35789    9.55210
     249      444        3     0.61931    3.64766    4.50194    0.85023
     250      444        3     0.61931    3.65474   -0.68969    9.08892
     251      444        3     0.61931    3.62744   14.26374    0.85023
     252      444        3     0.61931    3.63451    9.07834    9.07903
     253      444        3     0.61931   12.97995    4.50194    0.85023
     254      444        3     0.61931   12.98703   -0.68969    9.08892
     255      444        3     0.61931   12.95973   14.26374    0.85023
     256      444        3     0.61931   12.96683    9.07834    9.07903
     257      444        4     0.05387    3.55101    0.43932    8.04228
     258      444        4     0.05387    3.55809   -4.75231   16.28097
     259      444        4     0.05387    3.53081   10.20110    8.04228
     260      444        4     0.05387    3.53789    5.00951   16.28097
     261      444        4     0.05387   12.88330    0.43932    8.04228
     262      444        4     0.05387   12.89039   -4.75231   16.28097
     263      444        4     0.05387   12.86311   10.20112    8.04228
     264      444        4     0.05387   12.87019    5.00949   16.28097
     265      444        4    -0.30030    6.07738    8.43504    0.26611
     266      444        4    -0.30030    6.08446    3.24345    8.50480
     267      444        4    -0.30030    6.05720   18.19686    0.26611
     268      444        4    -0.30030    6.06427   13.00523    8.50480
     269      444        4    -0.30030   15.40968    8.43504    0.26611
     270      444        4    -0.30030   15.41676    3.24343    8.50480
     271      444        4    -0.30030   15.38948   18.19686    0.26611
     272      444        4    -0.30030   15.39656   13.00523    8.50480
     273      444        3     0.57186    4.69772    7.79172    0.14500
     274      444        3     0.57186    4.70480    2.60003    8.38385
     275      444        3     0.57186    4.67752   17.55346    0.14517
     276      444        3     0.57186    4.68460   12.36191    8.38369
     277      444        3     0.57186   14.03001    7.79162    0.14517
     278      444        3     0.57186   14.03709    2.60001    8.38385
     279      444        3     0.57186   14.00981   17.55344    0.14517
     280      444        3     0.57186   14.01690   12.36191    8.38369
     281      444        3     0.26465    7.54928    2.33523    4.20997
     282      444        3     0.26465    7.55637   -2.85673   12.44915
     283      444        3     0.26465    7.52909   12.09671    4.21046
     284      444        3     0.26465    7.53617    6.90512   12.44915
     285      444        3     0.26465   16.88158    2.33490    4.21046
     286      444        3     0.26465   16.88866   -2.85673   12.44915
     287      444        3     0.26465   16.86138   12.09671    4.21046
     288      444        3     0.26465   16.86846    6.90512   12.44915
     289      444        4    -0.30030    7.98807    4.80317    1.57853
     290      444        4    -0.30030    7.99515   -0.38909    9.81821
     291      444        4    -0.30030    7.96787   14.56435    1.57952
     292      444        4    -0.30030    7.97496    9.37274    9.81821
     293      444        4    -0.30030   17.32036    4.80318    1.57853
     294      444        4    -0.30030   17.32745   -0.38909    9.81821
     295      444        4    -0.30030   17.30017   14.56435    1.57952
     296      444        4    -0.30030   17.30725    9.37274    9.81821
     297      444        3    -0.07277    9.09789    3.75194    3.64694
     298      444        3    -0.07277    9.10498   -1.43971   11.88563
     299      444        3    -0.07277    9.07770   13.51372    3.64694
     300      444        3    -0.07277    9.08478    8.32213   11.88563
     301      444        3    -0.07277   18.43019    3.75194    3.64694
     302      444        3    -0.07277   18.43727   -1.43971   11.88563
     303      444        3    -0.07277   18.40999   13.51372    3.64694
     304      444        3    -0.07277   18.41707    8.32213   11.88563
     305      444        3     0.16810    8.06583    3.87770    2.74546
     306      444        3     0.16810    8.07291   -1.31393   10.98415
     307      444        3     0.16810    8.04563   13.63949    2.74546
     308      444        3     0.16810    8.05272    8.44790   10.98415
     309      444        3     0.16810   17.39813    3.87770    2.74546
     310      444        3     0.16810   17.40521   -1.31393   10.98415
     311      444        3     0.16810   17.37793   13.63949    2.74546
     312      444        3     0.16810   17.38501    8.44790   10.98415
     313      444        4     0.11282    1.44207    4.78658    6.92627
     314      444        4     0.11282    1.44917   -0.40507   15.16495
     315      444        4     0.11282    1.42189   14.54837    6.92627
     316      444        4     0.11282    1.42899    9.35680   15.16495
     317      444        4     0.11282   10.77437    4.78658    6.92627
     318      444        4     0.11282   10.78147   -0.40505   15.16495
     319      444        4     0.11282   10.75419   14.54837    6.92627
     320      444        4     0.11282   10.76127    9.35678   15.16495
     321      444        3     0.61931    8.32091    0.06657    7.38879
     322      444        3     0.61931    8.32799   -5.12506   15.62747
     323      444        3     0.61931    8.30073    9.82837    7.38879
     324      444        3     0.61931    8.30781    4.63674   15.62747
     325      444        3     0.61931   17.65321    0.06657    7.38879
     326      444        3     0.61931   17.66029   -5.12506   15.62747
     327      444        3     0.61931   17.63303    9.82837    7.38879
     328      444        3     0.61931   17.64011    4.63674   15.62747
     329      444        4     0.05387    8.21379    4.12817    0.19608
     330      444        4     0.05387    8.22086   -1.05411    8.41994
     331      444        4     0.05387    8.19361   13.89006    0.19592
     332      444        4     0.05387    8.20070    8.69845    8.43460
     333      444        4     0.05387   17.54611    4.12817    0.19608
     334      444        4     0.05387   17.55316   -1.05411    8.41994
     335      444        4     0.05387   17.52591   13.89006    0.19592
     336      444        4     0.05387   17.53299    8.69845    8.43460
     337      444        4    -0.30030    1.43026   -3.86077    7.97340