Created on Tue Feb 06 15:41:11 2018 

        2496 atoms
        2816 bonds
        4864 angles
        6016 dihedrals
        4032 impropers

           5 atom types
           8 bond types
          15 angle types
           3 dihedral types
           1 improper types
           0.000000  47.358000 xlo xhi
           0.000000  28.608000 ylo yhi
           0.000000  35.063996 zlo zhi
          -0.002996  -0.002448   0.017135 xy xz yz

Masses

    1   112.411000000 # Cd3+2
    2     1.007940000 # H_
    3    12.010700000 # C_R
    4    14.006700000 # N_R
    5    15.999400000 # O_R

Bond Coeffs

    1      152.700732        2.089900  # Cd3+2 N_R
    2      147.192711        2.045725  # Cd3+2 O_R
    3      357.440381        1.081418  # H_ C_R
    4      529.459447        1.043423  # H_ N_R
    5      663.718927        1.345073  # C_R N_R
    6      462.655054        1.379256  # C_R C_R
    7      391.669513        1.458000  # C_R C_R
    8      646.680887        1.311940  # C_R O_R

Angle Coeffs

    1                      fourier       30.023701        0.343737        0.374972        0.281246 # O_R Cd3+2 O_R
    2                      fourier       31.469575        0.343737        0.374972        0.281246 # N_R Cd3+2 O_R
    3                      fourier       33.010492        0.343737        0.374972        0.281246 # N_R Cd3+2 N_R
    4              cosine/periodic      165.695700              -1               3 # N_R C_R C_R
    5              cosine/periodic      109.704024              -1               3 # H_ C_R N_R
    6              cosine/periodic       76.817955              -1               3 # H_ C_R C_R
    7              cosine/periodic      117.010657              -1               3 # C_R C_R C_R
    8              cosine/periodic      101.626578              -1               3 # C_R C_R C_R
    9              cosine/periodic      137.761490              -1               3 # O_R C_R C_R
   10              cosine/periodic      217.450257              -1               3 # O_R C_R O_R
   11              cosine/periodic      132.654363              -1               3 # C_R N_R C_R
   12              cosine/periodic       33.294741              -1               3 # Cd3+2 N_R C_R
   13              cosine/periodic       65.483679              -1               3 # H_ N_R H_
   14              cosine/periodic       89.115099              -1               3 # C_R N_R H_
   15              cosine/periodic       45.673393              -1               3 # Cd3+2 O_R C_R

Dihedral Coeffs

    1        1.497136              -1               2 # C_R C_R N_R C_R
    2        0.555556              -1               2 # C_R C_R C_R C_R
    3        2.245703              -1               2 # O_R C_R O_R Cd3+2

Improper Coeffs

    1        2.000000        1.000000       -1.000000        0.000000               0 # C_R C_R H_ N_R

Pair Coeffs

    1        0.228000        2.537280 # Cd3+2 Cd3+2
    2        0.044000        2.571134 # H_ H_
    3        0.105000        3.430851 # C_R C_R
    4        0.069000        3.260689 # N_R N_R
    5        0.060000        3.118146 # O_R O_R

Atoms

       1      444        1     0.97550    0.20122    9.12980    0.26754
       2      444        1     0.97550   12.04164    9.12916    0.26841
       3      444        1     0.97550    0.20050    5.18289   17.26393
       4      444        1     0.97550   12.04116    5.18307   17.26341
       5      444        1     0.97550   11.62485   12.33717    9.04143
       6      444        1     0.97550   23.46579   12.33841    9.03967
       7      444        1     0.97550   11.62460    1.97627    8.49145
       8      444        1     0.97550   23.46571    1.97463    8.49197
       9      444        2     0.10971    2.61352    9.08416    2.34841
      10      444        2     0.10971   14.45337    9.09281    2.33982
      11      444        2     0.10971    2.71392    8.96233   15.74777
      12      444        2     0.10971   14.55468    8.95969   15.73953
      13      444        2     0.10971    5.21007    8.95030   15.71375
      14      444        2     0.10971   17.05061    8.94779   15.70586
      15      444        2     0.10971    5.11252    9.09173    2.50252
      16      444        2     0.10971   16.95266    9.09738    2.49445
      17      444        2     0.10971   11.73280    4.33565    4.37441
      18      444        2     0.10971   23.58473    4.33214    4.37371
      19      444        2     0.10971    9.56319   10.24762   16.19781
      20      444        2     0.10971   21.40160   10.25221   16.18835
      21      444        2     0.10971    7.07016   10.32245   16.15398
      22      444        2     0.10971   18.90820   10.32392   16.14469
      23      444        2     0.10971    7.08593    7.77449    2.12400
      24      444        2     0.10971   18.92673    7.78002    2.11734
      25      444        2     0.10971    9.58470    7.81916    2.02565
      26      444        2     0.10971   21.42631    7.82689    2.01828
      27      444        2     0.10971    0.33647    6.94307    7.74038
      28      444        2     0.10971   12.18222    6.94517    7.74055
      29      444        2     0.10971    0.41983    8.56929    3.73432
      30      444        2     0.10971   12.26350    8.57045    3.73379
      31      444        2     0.33694    0.33214    9.98970    5.82939
      32      444        2     0.33694   12.16700    9.99083    5.83097
      33      444        2     0.33694    0.42462    9.27703    7.35415
      34      444        2     0.33694   12.25974    9.27829    7.35292
      35      444        2     0.10971    2.61291    5.22915   15.18271
      36      444        2     0.10971   14.45300    5.21966   15.19200
      37      444        2     0.10971    2.71594    5.35027    1.78371
      38      444        2     0.10971   14.55638    5.35328    1.79230
      39      444        2     0.10971    5.21208    5.36223    1.81772
      40      444        2     0.10971   17.05238    5.36494    1.82631
      41      444        2     0.10971    5.11188    5.22154   15.02895
      42      444        2     0.10971   16.95231    5.21503   15.03772
      43      444        2     0.10971   11.74356    9.97862   13.15969
      44      444        2     0.10971   23.58289    9.98048   13.15776
      45      444        2     0.10971    9.56523    4.06489    1.33366
      46      444        2     0.10971   21.40383    4.05995    1.34330
      47      444        2     0.10971    7.07224    3.99009    1.37749
      48      444        2     0.10971   18.91043    3.98835    1.38748
      49      444        2     0.10971    7.08534    6.53792   15.40747
      50      444        2     0.10971   18.92584    6.53235   15.41483
      51      444        2     0.10971    9.58411    6.49308   15.50565
      52      444        2     0.10971   21.42541    6.48542   15.51354
      53      444        2     0.10971    0.33626    7.36977    9.79039
      54      444        2     0.10971   12.17175    7.36937    9.79074
      55      444        2     0.10971    0.41938    5.74350   13.79593
      56      444        2     0.10971   12.26229    5.74185   13.79663
      57      444        2     0.33694    0.33213    4.32311   11.70068
      58      444        2     0.33694   12.16915    4.32269   11.69910
      59      444        2     0.33694    0.42480    5.03579   10.17732
      60      444        2     0.33694   12.26896    5.03595   10.17680
      61      444        2     0.10971    9.21164   12.37908   11.11686
      62      444        2     0.10971   21.05079   12.37440   11.11301
      63      444        2     0.10971    9.11118   12.50541    6.98422
      64      444        2     0.10971   20.94945   12.51501    6.98089
      65      444        2     0.10971    6.61466   12.51735    6.94951
      66      444        2     0.10971   18.45350   12.52203    6.94635
      67      444        2     0.10971    6.71257   12.37081   11.26957
      68      444        2     0.10971   18.55172   12.36748   11.26659
      69      444        2     0.10971    0.07418    2.83855   13.14952
      70      444        2     0.10971   11.90764    2.83843   13.14812
      71      444        2     0.10971    2.25941   11.21526    7.44321
      72      444        2     0.10971   14.09901   11.21347    7.43883
      73      444        2     0.10971    4.75242   11.14058    7.39605
      74      444        2     0.10971   16.59178   11.14108    7.39202
      75      444        2     0.10971    4.74282   13.69499   10.88667
      76      444        2     0.10971   16.58002   13.69322   10.88421
      77      444        2     0.10971    2.24318   13.65435   10.78849
      78      444        2     0.10971   14.08067   13.65026   10.78656
      79      444        2     0.10971   11.51421    0.20437   16.50304
      80      444        2     0.10971   23.35802    0.20392   16.50340
      81      444        2     0.10971   11.40147   12.90654   12.48857
      82      444        2     0.10971   23.25688   12.90556   12.48857
      83      444        2     0.33694   11.49597   11.47468   14.57312
      84      444        2     0.33694   23.35006   11.47467   14.57435
      85      444        2     0.33694   11.42021   12.17900   16.10261
      86      444        2     0.33694   23.27022   12.17959   16.10296
      87      444        2     0.10971    9.20956    1.93971    6.41426
      88      444        2     0.10971   21.05126    1.93853    6.41846
      89      444        2     0.10971    9.10955    1.79477   10.54620
      90      444        2     0.10971   20.95059    1.79835   10.55111
      91      444        2     0.10971    6.61335    1.78912   10.58161
      92      444        2     0.10971   18.45456    1.79181   10.58600
      93      444        2     0.10971    6.71034    1.94556    6.26068
      94      444        2     0.10971   18.55216    1.94575    6.26576
      95      444        2     0.10971    0.07372   11.47406    4.38230
      96      444        2     0.10971   11.91706   11.47462    4.38317
      97      444        2     0.10971    2.25864    3.09764   10.08896
      98      444        2     0.10971   14.09877    3.09952   10.09212
      99      444        2     0.10971    4.75188    3.17146   10.13525
     100      444        2     0.10971   16.59150    3.17295   10.13998
     101      444        2     0.10971    4.74129    0.61805    6.64463
     102      444        2     0.10971   16.58183    0.61888    6.64919
     103      444        2     0.10971    2.24146    0.65913    6.74316
     104      444        2     0.10971   14.08172    0.65709    6.74807
     105      444        2     0.10971   11.51002   14.10774    1.02948
     106      444        2     0.10971   23.35788   14.10861    1.02843
     107      444        2     0.10971   11.41676    1.40683    5.04413
     108      444        2     0.10971   23.25853    1.40697    5.04308
     109      444        2     0.33694   11.50015    2.83830    2.95782
     110      444        2     0.33694   23.35201    2.83784    2.95712
     111      444        2     0.33694   11.42072    2.13265    1.42921
     112      444        2     0.33694   23.27265    2.13297    1.42868
     113      444        3     0.18323    3.23656    9.04090    1.45428
     114      444        3     0.18323   15.07677    9.04681    1.44604
     115      444        3     0.18323    3.28937    8.98501   16.67381
     116      444        3     0.18323   15.12972    8.98565   16.66557
     117      444        3    -0.17674    4.67862    8.99101   16.66399
     118      444        3    -0.17674   16.51895    8.99097   16.65592
     119      444        3    -0.17674    4.62552    9.04123    1.52897
     120      444        3    -0.17674   16.46568    9.04582    1.52090
     121      444        3    -0.02082    5.38158    9.01737    0.34696
     122      444        3    -0.02082   17.22164    9.01975    0.33889
     123      444        3     0.65675    0.16648    6.16465    2.42766
     124      444        3     0.65675   12.00342    6.16585    2.42748
     125      444        3    -0.02082    6.85895    9.03124    0.36291
     126      444        3    -0.02082   18.69883    9.03445    0.35625
     127      444        3    -0.17674   11.87365    5.33633    4.76572
     128      444        3    -0.17674   -0.00089    5.33339    4.76537
     129      444        3     0.18323    8.97136    9.70636   16.93766
     130      444        3     0.18323   20.81034    9.71055   16.92855
     131      444        3    -0.17674    7.58188    9.73560   16.91610
     132      444        3    -0.17674   19.42083    9.73842   16.90716
     133      444        3     0.65675   11.78468    4.34885    7.06031
     134      444        3     0.65675   23.62316    4.34537    7.05891
     135      444        3    -0.17674    7.59114    8.34371    1.34435
     136      444        3    -0.17674   19.43149    8.34880    1.33717
     137      444        3     0.18323    8.98083    8.35488    1.29263
     138      444        3     0.18323   20.82109    8.36120    1.28527
     139      444        3    -0.02082   11.92977    5.52931    6.14760
     140      444        3    -0.02082   -0.00101    5.52639    6.14672
     141      444        3    -0.17674    0.28936    6.80873    6.66198
     142      444        3    -0.17674   12.13099    6.81116    6.66146
     143      444        3    -0.17674    0.34384    7.72087    4.41684
     144      444        3    -0.17674   12.18400    7.72266    4.41631
     145      444        3     0.27399    0.41303    7.92727    5.81238
     146      444        3     0.27399   12.25321    7.92949    5.81168
     147      444        3    -0.02082    0.17513    6.42652    3.90104
     148      444        3    -0.02082   12.01072    6.42859    3.90087
     149      444        3     0.18323    3.23588    5.27224   16.07719
     150      444        3     0.18323   15.07624    5.26573   16.08578
     151      444        3     0.18323    3.29140    5.32773    0.85767
     152      444        3     0.18323   15.13164    5.32713    0.86626
     153      444        3    -0.17674    4.68067    5.32165    0.86748
     154      444        3    -0.17674   16.52086    5.32172    0.87485
     155      444        3    -0.17674    4.62485    5.27186   16.00251
     156      444        3    -0.17674   16.46516    5.26669   16.01110
     157      444        3    -0.02082    5.38091    5.29543   17.18451
     158      444        3    -0.02082   17.22095    5.29274   17.19328
     159      444        3     0.65675    0.16512    8.14800   15.10382
     160      444        3     0.65675   12.00358    8.14650   15.10487
     161      444        3    -0.02082    6.85829    5.28132   17.16716
     162      444        3    -0.02082   18.69815    5.27790   17.17592
     163      444        3    -0.17674   11.87904    8.97752   12.76768
     164      444        3    -0.17674   -0.00183    8.97931   12.76610
     165      444        3     0.18323    8.97341    4.60605    0.59381
     166      444        3     0.18323   20.81246    4.60169    0.60328
     167      444        3    -0.17674    7.58393    4.57691    0.61537
     168      444        3    -0.17674   19.42296    4.57389    0.62502
     169      444        3     0.65675   11.78203    9.96917   10.47712
     170      444        3     0.65675   23.62236    9.96735   10.47239
     171      444        3    -0.17674    7.59054    5.96872   16.18712
     172      444        3    -0.17674   19.43070    5.96358   16.19501
     173      444        3     0.18323    8.98023    5.95744   16.23884
     174      444        3     0.18323   20.82030    5.95112   16.24655
     175      444        3    -0.02082   11.92999    8.78570   11.38581
     176      444        3    -0.02082   -0.00171    8.78633   11.38353
     177      444        3    -0.17674    0.28881    7.50407   10.86949
     178      444        3    -0.17674   12.12622    7.50354   10.86984
     179      444        3    -0.17674    0.34314    6.59191   13.11464
     180      444        3    -0.17674   12.18347    6.59045   13.11516
     181      444        3     0.27399    0.41259    6.38554   11.71909
     182      444        3     0.27399   12.25197    6.38478   11.71926
     183      444        3    -0.02082    0.17397    7.88621   13.63043
     184      444        3    -0.02082   12.01262    7.88425   13.63165
     185      444        3     0.18323    8.58889   12.42187   10.22256
     186      444        3     0.18323   20.42794   12.42077   10.21905
     187      444        3     0.18323    8.53534   12.48419    7.90991
     188      444        3     0.18323   20.37420   12.48947    7.90676
     189      444        3    -0.17674    7.14603   12.47771    7.89992
     190      444        3    -0.17674   18.98484   12.48121    7.89641
     191      444        3    -0.17674    7.20000   12.42092   10.29672
     192      444        3    -0.17674   19.03898   12.41964   10.29321
     193      444        3    -0.02082    6.44429   12.44367    9.11313
     194      444        3    -0.02082   18.28306   12.44426    9.11120
     195      444        3     0.65675   11.64686    1.01527   11.19260
     196      444        3     0.65675   23.50694    1.01493   11.19243
     197      444        3    -0.02082    4.96705   12.43049    9.13242
     198      444        3    -0.02082   16.80558   12.43002    9.12926
     199      444        3    -0.17674   23.62605    1.83394   13.53558
     200      444        3    -0.17674   11.77914    1.83414   13.53470
     201      444        3     0.18323    2.85225   11.76097    8.17903
     202      444        3     0.18323   14.69102   11.75972    8.17517
     203      444        3    -0.17674    4.24167   11.73099    8.15606
     204      444        3    -0.17674   16.08058   11.73072    8.15220
     205      444        3     0.65675    0.05238    2.80762   15.83595
     206      444        3     0.65675   11.89109    2.80717   15.83508
     207      444        3    -0.17674    4.23634   13.12301   10.10983
     208      444        3    -0.17674   16.07409   13.12134   10.10702
     209      444        3     0.18323    2.84667   13.11360   10.05881
     210      444        3     0.18323   14.68435   13.11080   10.05600
     211      444        3    -0.02082   23.58347    1.63207   14.91693
     212      444        3    -0.02082   11.74019    1.63209   14.91605
     213      444        3    -0.17674   11.55111    0.34617   15.42430
     214      444        3    -0.17674   23.39630    0.34580   15.42483
     215      444        3    -0.17674   11.47973   13.75182   13.17407
     216      444        3    -0.17674   23.33289   13.75099   13.17424
     217      444        3     0.27399   11.41982   13.53712   14.56874
     218      444        3     0.27399   23.26884   13.53654   14.56874
     219      444        3    -0.02082   11.64387    0.74565   12.66459
     220      444        3    -0.02082   23.49727    0.74503   12.66512
     221      444        3     0.18323    8.58700    1.89146    7.30839
     222      444        3     0.18323   20.42854    1.89243    7.31295
     223      444        3     0.18323    8.53383    1.82085    9.62068
     224      444        3     0.18323   20.37515    1.82397    9.62524
     225      444        3    -0.17674    7.14456    1.83003    9.63120
     226      444        3    -0.17674   18.98581    1.83256    9.63559
     227      444        3    -0.17674    7.19809    1.89272    7.23458
     228      444        3    -0.17674   19.03958    1.89383    7.23896
     229      444        3    -0.02082    6.44277    1.86771    8.41536
     230      444        3    -0.02082   18.28383    1.86947    8.42114
     231      444        3     0.65675   11.66661   13.29759    6.33922
     232      444        3     0.65675   23.50587   13.29768    6.33852
     233      444        3    -0.02082    4.96567    1.88203    8.39905
     234      444        3    -0.02082   16.80636    1.88317    8.40344
     235      444        3    -0.17674   23.62546   12.47863    3.99607
     236      444        3    -0.17674   11.78736   12.47889    3.99694
     237      444        3     0.18323    2.85138    2.55197    9.35297
     238      444        3     0.18323   14.69128    2.55253    9.35700
     239      444        3    -0.17674    4.24077    2.58152    9.37594
     240      444        3    -0.17674   16.08081    2.58245    9.37997
     241      444        3     0.65675    0.05245   11.50499    1.69587
     242      444        3     0.65675   11.89205   11.50532    1.69657
     243      444        3    -0.17674    4.23484    1.18996    7.42129
     244      444        3    -0.17674   16.07543    1.19059    7.42620
     245      444        3     0.18323    2.84526    1.19961    7.47214
     246      444        3     0.18323   14.68571    1.19897    7.47792
     247      444        3    -0.02082   23.58311   12.68049    2.61490
     248      444        3    -0.02082   11.74327   12.68056    2.61577
     249      444        3    -0.17674   11.55187   13.96627    2.10805
     250      444        3    -0.17674   23.39594   13.96674    2.10700
     251      444        3    -0.17674   11.49359    0.56149    4.35845
     252      444        3    -0.17674   23.33482    0.56154    4.35740
     253      444        3     0.27399   11.42672    0.77559    2.96291
     254      444        3     0.27399   23.27110    0.77600    2.96291
     255      444        3    -0.02082   11.65667   13.56762    4.86741
     256      444        3    -0.02082   23.49628   13.56752    4.86653
     257      444        4    -0.32445    2.57607    9.00661    0.28121
     258      444        4    -0.32445   14.41649    9.01105    0.27280
     259      444        4    -0.32445    9.66364    9.01005    0.33556
     260      444        4    -0.32445   21.50307    9.01599    0.32732
     261      444        4    -0.73074    0.65514    9.17955    6.35921
     262      444        4    -0.73074   12.49509    9.18228    6.35886
     263      444        4    -0.32445    2.57537    5.30635   17.25026
     264      444        4    -0.32445   14.41582    5.30156   17.25902
     265      444        4    -0.32445    9.66302    5.30226   17.19573
     266      444        4    -0.32445   21.50235    5.29624   17.20450
     267      444        4    -0.73074    0.65511    5.13331   11.17227
     268      444        4    -0.73074   12.49589    5.13261   11.17244
     269      444        4    -0.32445    9.24976   12.45551    9.04949
     270      444        4    -0.32445   21.08888   12.45807    9.04598
     271      444        4    -0.32445    2.16279   12.45411    9.10559
     272      444        4    -0.32445   14.00090   12.45149    9.10226
     273      444        4    -0.73074   11.18125   12.28185   15.11048
     274      444        4    -0.73074   23.03067   12.28102   15.10908
     275      444        4    -0.32445    9.24804    1.85269    8.48110
     276      444        4    -0.32445   21.08960    1.85504    8.48549
     277      444        4    -0.32445    2.16177    1.85913    8.42623
     278      444        4    -0.32445   14.00165    1.85858    8.43114
     279      444        4    -0.73074   11.18468    2.03022    2.42222
     280      444        4    -0.73074   23.03287    2.03148    2.42099
     281      444        5    -0.61446    0.23063    7.12020    1.58419
     282      444        5    -0.61446   12.09656    7.11952    1.58437
     283      444        5    -0.61446    0.11880    4.94209    2.04230
     284      444        5    -0.61446   11.93055    4.94447    2.04072
     285      444        5    -0.63310   11.98228    4.47910    8.30876
     286      444        5    -0.63310   -0.00105    4.47937    8.31087
     287      444        5    -0.61446   11.47211    3.21955    6.53049
     288      444        5    -0.61446   23.33332    3.21169    6.52541
     289      444        5    -0.61446    0.22941    7.19243   15.94728
     290      444        5    -0.61446   12.09564    7.19269   15.94798
     291      444        5    -0.61446    0.11709    9.37055   15.48934
     292      444        5    -0.61446   11.92948    9.36781   15.49022
     293      444        5    -0.63310   11.92878    9.83349    9.22183
     294      444        5    -0.63310   -0.00167    9.83334    9.22008
     295      444        5    -0.61446   11.51740   11.10626   11.01658
     296      444        5    -0.61446   23.33240   11.10109   11.00589
     297      444        5    -0.61446   11.58046    0.06231   10.34458
     298      444        5    -0.61446   23.44444    0.06200   10.34458
     299      444        5    -0.61446   11.69263    2.23819   10.80848
     300      444        5    -0.61446   23.55512    2.23761   10.80988
     301      444        5    -0.63310   23.60931    2.65837   17.09177
     302      444        5    -0.63310   11.74533    2.66087   17.08879
     303      444        5    -0.61446    0.29266    3.95294   15.30210
     304      444        5    -0.61446   12.15624    3.94856   15.30403
     305      444        5    -0.61446   11.63216   14.25160    7.18794
     306      444        5    -0.61446   23.44322   14.25063    7.18707
     307      444        5    -0.61446   11.68947   12.07406    6.72212
     308      444        5    -0.61446   23.55468   12.07505    6.72194
     309      444        5    -0.63310   23.60958   11.65427    0.43830
     310      444        5    -0.63310   11.74576   11.65183    0.44303
     311      444        5    -0.61446    0.29307   10.35972    2.22972
     312      444        5    -0.61446   12.15698   10.36381    2.22744
     313      444        1     0.97550    0.20000    9.13837   17.79954
     314      444        1     0.97550   12.04042    9.13773   17.80041
     315      444        1     0.97550    0.19927    5.19146   34.79593
     316      444        1     0.97550   12.03993    5.19163   34.79541
     317      444        1     0.97550   11.62362   12.34574   26.57342
     318      444        1     0.97550   23.46457   12.34698   26.57167
     319      444        1     0.97550   11.62337    1.98484   26.02345
     320      444        1     0.97550   23.46448    1.98319   26.02397
     321      444        2     0.10971    2.61230    9.09273   19.88041
     322      444        2     0.10971   14.45215    9.10138   19.87182
     323      444        2     0.10971    2.71270    8.97090   33.27976
     324      444        2     0.10971   14.55345    8.96826   33.27152
     325      444        2     0.10971    5.20885    8.95886   33.24575
     326      444        2     0.10971   17.04939    8.95636   33.23786
     327      444        2     0.10971    5.11130    9.10030   20.03452
     328      444        2     0.10971   16.95143    9.10594   20.02645
     329      444        2     0.10971   11.73158    4.34422   21.90641
     330      444        2     0.10971   23.58351    4.34071   21.90571
     331      444        2     0.10971    9.56197   10.25619   33.72981
     332      444        2     0.10971   21.40038   10.26077   33.72034
     333      444        2     0.10971    7.06894   10.33102   33.68598
     334      444        2     0.10971   18.90697   10.33249   33.67669
     335      444        2     0.10971    7.08470    7.78306   19.65600
     336      444        2     0.10971   18.92550    7.78859   19.64934
     337      444        2     0.10971    9.58348    7.82772   19.55764
     338      444        2     0.10971   21.42508    7.83546   19.55028
     339      444        2     0.10971    0.33524    6.95164   25.27237
     340      444        2     0.10971   12.18099    6.95374   25.27255
     341      444        2     0.10971    0.41861    8.57786   21.26631
     342      444        2     0.10971   12.26227    8.57902   21.26579
     343      444        2     0.33694    0.33091    9.99827   23.36139
     344      444        2     0.33694   12.16577    9.99940   23.36297
     345      444        2     0.33694    0.42340    9.28560   24.88615
     346      444        2     0.33694   12.25851    9.28686   24.88492
     347      444        2     0.10971    2.61169    5.23772   32.71471
     348      444        2     0.10971   14.45178    5.22823   32.72400
     349      444        2     0.10971    2.71471    5.35883   19.31570
     350      444        2     0.10971   14.55516    5.36184   19.32429
     351      444        2     0.10971    5.21085    5.37080   19.34972
     352      444        2     0.10971   17.05116    5.37350   19.35831
     353      444        2     0.10971    5.11066    5.23011   32.56095
     354      444        2     0.10971   16.95108    5.22360   32.56972
     355      444        2     0.10971   11.74233    9.98719   30.69169
     356      444        2     0.10971   23.58167    9.98905   30.68976
     357      444        2     0.10971    9.56401    4.07346   18.86566
     358      444        2     0.10971   21.40261    4.06851   18.87530
     359      444        2     0.10971    7.07101    3.99865   18.90949
     360      444        2     0.10971   18.90921    3.99691   18.91948
     361      444        2     0.10971    7.08412    6.54649   32.93947
     362      444        2     0.10971   18.92461    6.54091   32.94683
     363      444        2     0.10971    9.58289    6.50165   33.03765
     364      444        2     0.10971   21.42419    6.49399   33.04554
     365      444        2     0.10971    0.33503    7.37834   27.32239
     366      444        2     0.10971   12.17053    7.37794   27.32274
     367      444        2     0.10971    0.41815    5.75207   31.32793
     368      444        2     0.10971   12.26106    5.75041   31.32863
     369      444        2     0.33694    0.33091    4.33168   29.23268
     370      444        2     0.33694   12.16792    4.33126   29.23110
     371      444        2     0.33694    0.42357    5.04436   27.70932
     372      444        2     0.33694   12.26774    5.04452   27.70880
     373      444        2     0.10971    9.21042   12.38765   28.64886