Created on Tue Feb 06 15:04:38 2018 

        1600 atoms
        1808 bonds
        3056 angles
        4128 dihedrals
        2688 impropers

           6 atom types
           9 bond types
          17 angle types
           3 dihedral types
           1 improper types
           0.000000  26.888000 xlo xhi
           0.000000  28.352477 ylo yhi
           0.000000  36.144203 zlo zhi
          -1.676502 -11.956186  -1.222413 xy xz yz

Masses

    1   112.411000000 # Cd3+2
    2     1.007940000 # H_
    3    12.010700000 # C_R
    4    79.904000000 # Br
    5    14.006700000 # N_R
    6    15.999400000 # O_R

Bond Coeffs

    1      152.700732        2.089900  # Cd3+2 N_R
    2      147.192711        2.045725  # Cd3+2 O_R
    3      357.440381        1.081418  # H_ C_R
    4      663.718927        1.345073  # C_R N_R
    5      462.655054        1.379256  # C_R C_R
    6      561.491352        1.422196  # C_R N_R
    7      391.669513        1.458000  # C_R C_R
    8      646.680887        1.311940  # C_R O_R
    9      231.033365        1.905838  # C_R Br

Angle Coeffs

    1                      fourier       31.469575        0.343737        0.374972        0.281246 # N_R Cd3+2 O_R
    2                      fourier       30.023701        0.343737        0.374972        0.281246 # O_R Cd3+2 O_R
    3                      fourier       33.010492        0.343737        0.374972        0.281246 # N_R Cd3+2 N_R
    4              cosine/periodic      234.844275              -1               3 # N_R C_R N_R
    5              cosine/periodic      109.704024              -1               3 # N_R C_R H_
    6              cosine/periodic       76.817955              -1               3 # H_ C_R C_R
    7              cosine/periodic      165.695700              -1               3 # N_R C_R C_R
    8              cosine/periodic      144.106216              -1               3 # C_R C_R N_R
    9              cosine/periodic      117.010657              -1               3 # C_R C_R C_R
   10              cosine/periodic      137.761490              -1               3 # C_R C_R O_R
   11              cosine/periodic      217.450257              -1               3 # O_R C_R O_R
   12              cosine/periodic      101.626578              -1               3 # C_R C_R C_R
   13              cosine/periodic       63.886311              -1               3 # Br C_R C_R
   14              cosine/periodic      132.654363              -1               3 # C_R N_R C_R
   15              cosine/periodic       33.294741              -1               3 # Cd3+2 N_R C_R
   16              cosine/periodic      115.144329              -1               3 # C_R N_R C_R
   17              cosine/periodic       45.673393              -1               3 # Cd3+2 O_R C_R

Dihedral Coeffs

    1        1.497136              -1               2 # H_ C_R N_R C_R
    2        0.555556              -1               2 # C_R C_R N_R C_R
    3        2.245703              -1               2 # N_R C_R N_R C_R

Improper Coeffs

    1        2.000000        1.000000       -1.000000        0.000000               0 # H_ C_R N_R N_R

Pair Coeffs

    1        0.228000        2.537280 # Cd3+2 Cd3+2
    2        0.044000        2.571134 # H_ H_
    3        0.105000        3.430851 # C_R C_R
    4        0.251000        3.731975 # Br Br
    5        0.069000        3.260689 # N_R N_R
    6        0.060000        3.118146 # O_R O_R

Atoms

       1      444        1     1.00298   10.95569    6.53555    3.52316
       2      444        1     1.07798    2.18973   12.23040   10.51073
       3      444        1     1.00298   -4.32836    7.02879   14.54804
       4      444        1     1.07798    4.43803    1.33374    7.55956
       5      444        2     0.12514    0.96880    6.05161    3.09214
       6      444        2     0.12514   11.37550    5.62514    0.20331
       7      444        2     0.12514   -5.67674    3.98153   17.22615
       8      444        2     0.12514   -3.35288    4.39255   17.04235
       9      444        2     0.12514    5.92269    3.11316    1.03571
      10      444        2     0.12514    2.39447    4.24703    3.21738
      11      444        2     0.12514    3.12227    2.16560    4.36947
      12      444        2     0.12514    6.85322    3.87787    3.23671
      13      444        2     0.12514    7.06002    2.70577    5.75488
      14      444        2     0.12514   -2.53212    3.45347   15.25430
      15      444        2     0.12514    1.62089    2.95966   14.70202
      16      444        2     0.12514    1.12731    3.12709   17.40470
      17      444        2     0.12514   -1.88270    6.08852    6.82403
      18      444        2     0.12514   -0.10633    3.66897    3.87592
      19      444        2     0.12514    1.07137    3.07612    6.32126
      20      444        2     0.12514   -0.33469    8.17831   10.71567
      21      444        2     0.12514   -2.16288    9.22131   12.52993
      22      444        2     0.12514   -2.36051    5.02089   12.72276
      23      444        2     0.12514   -0.88628    6.47729    8.85334
      24      444        2     0.12514    0.43144    2.40277    8.29275
      25      444        2     0.12514   -0.13513    3.95888   12.28144
      26      444        2     0.12514    1.98740    1.12077    9.28996
      27      444        2     0.12514   -0.39447    1.76658   12.75348
      28      444        2     0.12514   -0.08501   13.42028   12.86228
      29      444        2     0.12514    5.65859    7.51316   14.97924
      30      444        2     0.12514   -4.74796    7.93970   17.86789
      31      444        2     0.12514   12.30436    9.58345    0.84505
      32      444        2     0.12514    9.98045    9.17239    1.02884
      33      444        2     0.12514    0.70481   10.45173   17.03567
      34      444        2     0.12514    4.23320    9.31787   14.85346
      35      444        2     0.12514    3.50527   11.39909   13.70154
      36      444        2     0.12514   -0.22575    9.68705   14.83467
      37      444        2     0.12514   -0.43255   10.85887   12.31632
      38      444        2     0.12514    9.15960   10.11132    2.81708
      39      444        2     0.12514    5.00665   10.60519    3.36918
      40      444        2     0.12514    5.50024   10.43789    0.66650
      41      444        2     0.12514    8.51061    7.47616   11.24591
      42      444        2     0.12514    6.73389    9.89565   14.19546
      43      444        2     0.12514    5.55627   10.48867   11.75012
      44      444        2     0.12514    6.96198    5.38640    7.35553
      45      444        2     0.12514    8.79009    4.34324    5.54145
      46      444        2     0.12514    8.99046    8.54389    5.34139
      47      444        2     0.12514    7.51382    7.08742    9.21786
      48      444        2     0.12514    6.19618   11.16196    9.77863
      49      444        2     0.12514    6.76267    9.60577    5.78994
      50      444        2     0.12514    4.64034   12.44399    8.78141
      51      444        2     0.12514    7.02253   11.79806    5.31627
      52      444        2     0.12514    6.71250    0.14430    5.20892
      53      444        3     0.16039    0.44205    5.78220    2.18492
      54      444        3    -0.05011   12.36201    5.55084    0.64499
      55      444        3    -0.05011    0.07298    5.03554    0.11819
      56      444        3     0.17675    2.36093    4.63658    1.08180
      57      444        3    -0.23726   -2.92283    3.96756   17.94560
      58      444        3     0.17675   -1.63533    3.41578   17.93132
      59      444        3    -0.23726    4.93324    3.56230    1.04095
      60      444        3     0.17675    4.22189    3.65149    2.23642
      61      444        3    -0.23726    2.93207    4.18142    2.27419
      62      444        3     0.16039    4.15679    2.48046    4.43507
      63      444        3    -0.05011    6.13074    3.33688    3.84267
      64      444        3    -0.05011    6.21392    2.75667    5.08097
      65      444        3     0.16039   -1.46676    3.34140   15.43683
      66      444        3    -0.05011    0.67031    3.06309   15.21310
      67      444        3    -0.05011    0.44882    3.13180   16.56182
      68      444        3     0.16039   -1.24178    5.36479    6.33897
      69      444        3    -0.05011   -0.29721    4.09144    4.85543
      70      444        3    -0.05011    0.28219    3.76789    6.05235
      71      444        3    -0.05011   -1.04518    7.68851   11.37765
      72      444        3    -0.05011   -1.93966    8.18932   12.28975
      73      444        3     0.16039   -2.06975    6.02674   12.45891
      74      444        3     0.17675   -0.57507    5.30423   10.63905
      75      444        3    -0.23726   -0.56447    5.51969    9.25725
      76      444        3     0.17675   -0.19478    4.46472    8.41853
      77      444        3    -0.23726    0.20403    3.23748    8.94876
      78      444        3     0.17675    0.25042    3.07200   10.33290
      79      444        3    -0.23726   -0.14414    4.09770   11.19747
      80      444        3     0.16039    1.48560    0.91690   10.22592
      81      444        3    -0.05011    0.24077    1.23702   12.05084
      82      444        3    -0.05011    0.82513    0.00132   12.09204
      83      444        3     0.64541    2.50253    9.51968    9.76165
      84      444        3    -0.10595    2.93752    8.10826    9.38701
      85      444        3     0.03923    3.12767    7.12519   10.36851
      86      444        3     0.03923    3.49116    5.81382   10.02803
      87      444        3     0.64541    8.53769    6.09184    1.65522
      88      444        3    -0.10595    7.38705    6.61365    0.79391
      89      444        3     0.03923    6.17109    6.99159    1.38197
      90      444        3     0.03923    5.10651    7.45354    0.59783
      91      444        3     0.64541   -1.68453    9.42044    4.14574
      92      444        3    -0.10595   -0.94589   10.52493    4.90025
      93      444        3     0.03923    0.35609   10.87547    4.51622
      94      444        3     0.03923    1.09185   11.82283    5.23603
      95      444        3    -0.10595    0.54944   12.44641    6.36807
      96      444        3     0.03923   -0.77134   12.14195    6.72083
      97      444        3     0.03923   -1.50887   11.19672    5.99434
      98      444        3     0.64541    1.42871   13.34736    7.22667
      99      444        3     0.16039    6.18538    7.78258   15.88646
     100      444        3    -0.05011   -5.73448    8.01398   17.42620
     101      444        3    -0.05011    6.55459    8.52936   17.95301
     102      444        3     0.17675    4.26658    8.92833   16.98958
     103      444        3    -0.23726    9.55052    9.59739    0.12524
     104      444        3     0.17675    8.26283   10.14914    0.14006
     105      444        3    -0.23726    1.69426   10.00260   17.03043
     106      444        3     0.17675    2.40567    9.91340   15.83478
     107      444        3    -0.23726    3.69542    9.38349   15.79719
     108      444        3     0.16039    2.47070   11.08423   13.63612
     109      444        3    -0.05011    0.49671   10.22793   14.22871
     110      444        3    -0.05011    0.41356   10.80801   12.99023
     111      444        3     0.16039    8.09424   10.22343    2.63455
     112      444        3    -0.05011    5.95746   10.50180    2.85738
     113      444        3    -0.05011    6.17873   10.43312    1.50938
     114      444        3     0.16039    7.86932    8.19984   11.73223
     115      444        3    -0.05011    6.92475    9.47321   13.21595
     116      444        3    -0.05011    6.34583    9.79687   12.01777
     117      444        3    -0.05011    7.67250    5.87612    6.69373
     118      444        3    -0.05011    8.56701    5.37526    5.78145
     119      444        3     0.16039    8.69725    7.53782    5.61247
     120      444        3     0.17675    7.20257    8.26045    7.43233
     121      444        3    -0.23726    7.19200    8.04500    8.81413
     122      444        3     0.17675    6.82235    9.10000    9.65285
     123      444        3    -0.23726    6.42363   10.32724    9.12244
     124      444        3     0.17675    6.37717   10.49267    7.73847
     125      444        3    -0.23726    6.77182    9.46699    6.87354
     126      444        3     0.16039    5.14205   12.64776    7.84546
     127      444        3    -0.05011    6.38683   12.32760    6.02036
     128      444        3    -0.05011    5.80245   13.56329    5.97915
     129      444        3     0.64541    4.12478    4.04439    8.30955
     130      444        3    -0.10595    3.68902    5.45563    8.68455
     131      444        3     0.03923    3.49888    6.43873    7.70305
     132      444        3     0.03923    3.13588    7.75013    8.04209
     133      444        3     0.64541   -1.91031    7.47321   16.41615
     134      444        3    -0.10595   -0.75973    6.95134   17.27765
     135      444        3     0.03923    0.45623    6.57336   16.68959
     136      444        3     0.03923    1.52088    6.11143   17.47355
     137      444        3     0.64541    8.31198    4.14403   13.92564
     138      444        3    -0.10595    7.57339    3.03929   13.17149
     139      444        3     0.03923    6.27163    2.68871   13.55480
     140      444        3     0.03923    5.53571    1.74125   12.83571
     141      444        3    -0.10595    6.07824    1.11767   11.70349
     142      444        3     0.03923    7.39897    1.42226   11.35091
     143      444        3     0.03923    8.13644    2.36750   12.07740
     144      444        3     0.64541    5.19902    0.21697   10.84453
     145      444        4    -0.05313    2.86707    7.61264   12.20554
     146      444        4    -0.05313    3.71491    4.46798   11.36428
     147      444        4    -0.05313    5.99714    6.86945    3.28207
     148      444        4    -0.05313    3.46456    7.97634    1.43818
     149      444        4    -0.05313   10.12048   10.80835    6.48355
     150      444        4    -0.05313   -1.53506   13.04709    8.22732
     151      444        4    -0.05313    1.12499   10.01603    2.98840
     152      444        4    -0.05313    2.88935   12.26455    4.73308
     153      444        4    -0.05313    3.75978    5.95139    5.86584
     154      444        4    -0.05313    2.91203    9.09603    6.70728
     155      444        4    -0.05313    0.63014    6.69544   14.78949
     156      444        4    -0.05313    3.16284    5.58864   16.63320
     157      444        4    -0.05313   -3.49292    2.75594   11.58837
     158      444        4    -0.05313    8.16275    0.51735    9.84424
     159      444        4    -0.05313    5.50231    3.54818   15.08316
     160      444        4    -0.05313    3.73865    1.29957   13.33703
     161      444        5    -0.40549   -0.84243    6.01222    1.93082
     162      444        5     0.02137    1.04016    5.17318    1.11234
     163      444        5     0.02137   -0.92578    3.31833   16.71091
     164      444        5    -0.43852   -0.52735    3.18541   14.51877
     165      444        5     0.02137    4.80821    3.16595    3.44093
     166      444        5    -0.40549    4.98729    2.21926    5.43500
     167      444        5    -0.40549   -1.24299    5.08993    5.04031
     168      444        5     0.02137   -0.32729    4.58445    7.00294
     169      444        5     0.02137   -1.13205    6.30122   11.49530
     170      444        5    -0.40549   -2.57717    7.14827   12.94703
     171      444        5     0.02137    0.66244    1.81472   10.85392
     172      444        5    -0.40549    1.59561   -0.18884   10.95133
     173      444        5    -0.40549    7.46990    7.55251   16.14037
     174      444        5     0.02137    5.58733    8.39169   16.95904
     175      444        5     0.02137    7.55333   10.24657    1.36029
     176      444        5    -0.43852    7.15482   10.37939    3.55261
     177      444        5     0.02137    1.81926   10.39888   14.63045
     178      444        5    -0.40549    1.64017   11.34534   12.63619
     179      444        5    -0.40549    7.87094    8.47470   13.02962
     180      444        5     0.02137    6.95519    8.98030   11.06736
     181      444        5     0.02137    7.75998    7.26345    6.57463
     182      444        5    -0.40549    9.20457    6.41625    5.12434
     183      444        5     0.02137    5.96523   11.74996    7.21727
     184      444        5    -0.40549    5.03203   13.75346    7.11987
     185      444        6    -0.59739    9.41939    6.98525    1.92414
     186      444        6    -0.60140    8.51607    4.89748    2.00781
     187      444        6    -0.59739   -1.60818    8.27565    4.71429
     188      444        6    -0.60140   11.18960    9.69983    3.07045
     189      444        6    -0.59739    3.44385   10.36785    9.94797
     190      444        6    -0.60140    1.27577    9.75698    9.86737
     191      444        6    -0.59739    2.39908    0.38287    6.85999
     192      444        6    -0.59739    1.99652   12.78948    8.20076
     193      444        6    -0.59739   -2.79201    6.57981   16.14724
     194      444        6    -0.60140   -1.88823    8.66761   16.06248
     195      444        6    -0.59739    8.23571    5.28857   13.35673
     196      444        6    -0.60140   -4.56248    3.86521   15.00129
     197      444        6    -0.59739    3.18386    3.19549    8.12395
     198      444        6    -0.60140    5.35154    3.80798    8.20365
     199      444        6    -0.59739    4.22850   13.18128   11.21085
     200      444        6    -0.59739    4.63132    0.77544    9.87080
     201      444        1     1.00298    4.97760    5.92435   21.59526
     202      444        1     1.07798   -3.78837   11.61919   28.58284
     203      444        1     1.00298  -10.30646    6.41758   32.62014
     204      444        1     1.07798   -1.54006    0.72254   25.63166
     205      444        2     0.12514   -5.00929    5.44040   21.16424
     206      444        2     0.12514    5.39740    5.01394   18.27541
     207      444        2     0.12514  -11.65483    3.37032   35.29825
     208      444        2     0.12514   -9.33097    3.78134   35.11445
     209      444        2     0.12514   -0.05540    2.50195   19.10781
     210      444        2     0.12514   -3.58363    3.63583   21.28948
     211      444        2     0.12514   -2.85582    1.55439   22.44157
     212      444        2     0.12514    0.87513    3.26666   21.30882
     213      444        2     0.12514    1.08193    2.09456   23.82698
     214      444        2     0.12514   -8.51021    2.84226   33.32640
     215      444        2     0.12514   -4.35721    2.34845   32.77412
     216      444        2     0.12514   -4.85078    2.51588   35.47680
     217      444        2     0.12514   -7.86079    5.47732   24.89613
     218      444        2     0.12514   -6.08443    3.05776   21.94803
     219      444        2     0.12514   -4.90672    2.46491   24.39336
     220      444        2     0.12514   -6.31278    7.56710   28.78777
     221      444        2     0.12514   -8.14097    8.61010   30.60203
     222      444        2     0.12514   -8.33860    4.40968   30.79486
     223      444        2     0.12514   -6.86437    5.86608   26.92544
     224      444        2     0.12514   -5.54666    1.79157   26.36485
     225      444        2     0.12514   -6.11323    3.34768   30.35354
     226      444        2     0.12514   -3.99069    0.50956   27.36207
     227      444        2     0.12514   -6.37257    1.15538   30.82558
     228      444        2     0.12514   -6.06311   12.80907   30.93438
     229      444        2     0.12514   -0.31950    6.90196   33.05134
     230      444        2     0.12514  -10.72605    7.32850   35.93999
     231      444        2     0.12514    6.32627    8.97224   18.91715
     232      444        2     0.12514    4.00236    8.56118   19.10095
     233      444        2     0.12514   -5.27328    9.84052   35.10777
     234      444        2     0.12514   -1.74489    8.70666   32.92556
     235      444        2     0.12514   -2.47282   10.78788   31.77365
     236      444        2     0.12514   -6.20384    9.07584   32.90677
     237      444        2     0.12514   -6.41064   10.24766   30.38842
     238      444        2     0.12514    3.18150    9.50011   20.88918
     239      444        2     0.12514   -0.97144    9.99398   21.44128
     240      444        2     0.12514   -0.47785    9.82669   18.73860
     241      444        2     0.12514    2.53252    6.86495   29.31801
     242      444        2     0.12514    0.75580    9.28444   32.26756
     243      444        2     0.12514   -0.42183    9.87746   29.82222
     244      444        2     0.12514    0.98389    4.77519   25.42763
     245      444        2     0.12514    2.81200    3.73203   23.61355
     246      444        2     0.12514    3.01237    7.93268   23.41349
     247      444        2     0.12514    1.53573    6.47622   27.28996
     248      444        2     0.12514    0.21809   10.55075   27.85074
     249      444        2     0.12514    0.78458    8.99457   23.86204
     250      444        2     0.12514   -1.33775   11.83278   26.85352
     251      444        2     0.12514    1.04444   11.18685   23.38837
     252      444        2     0.12514    0.73441   -0.46691   23.28102
     253      444        3     0.16039   -5.53604    5.17099   20.25702
     254      444        3    -0.05011    6.38392    4.93963   18.71709
     255      444        3    -0.05011   -5.90511    4.42434   18.19029
     256      444        3     0.17675   -3.61716    4.02538   19.15390
     257      444        3    -0.23726   -8.90092    3.35635   36.01770
     258      444        3     0.17675   -7.61342    2.80457   36.00342
     259      444        3    -0.23726   -1.04485    2.95109   19.11305
     260      444        3     0.17675   -1.75620    3.04029   20.30852
     261      444        3    -0.23726   -3.04603    3.57021   20.34629
     262      444        3     0.16039   -1.82130    1.86926   22.50718
     263      444        3    -0.05011    0.15265    2.72567   21.91477
     264      444        3    -0.05011    0.23583    2.14547   23.15307
     265      444        3     0.16039   -7.44486    2.73019   33.50893
     266      444        3    -0.05011   -5.30778    2.45188   33.28520
     267      444        3    -0.05011   -5.52927    2.52060   34.63392
     268      444        3     0.16039   -7.21987    4.75358   24.41107
     269      444        3    -0.05011   -6.27530    3.48023   22.92753
     270      444        3    -0.05011   -5.69591    3.15668   24.12445
     271      444        3    -0.05011   -7.02327    7.07731   29.44975
     272      444        3    -0.05011   -7.91775    7.57811   30.36185
     273      444        3     0.16039   -8.04784    5.41553   30.53101
     274      444        3     0.17675   -6.55316    4.69302   28.71115
     275      444        3    -0.23726   -6.54257    4.90848   27.32936
     276      444        3     0.17675   -6.17287    3.85351   26.49063
     277      444        3    -0.23726   -5.77407    2.62628   27.02086
     278      444        3     0.17675   -5.72767    2.46079   28.40501
     279      444        3    -0.23726   -6.12224    3.48649   29.26958
     280      444        3     0.16039   -4.49249    0.30570   28.29802
     281      444        3    -0.05011   -5.73732    0.62581   30.12294
     282      444        3    -0.05011   -5.15296   -0.60989   30.16414
     283      444        3     0.64541   -3.47556    8.90847   27.83375
     284      444        3    -0.10595   -3.04057    7.49705   27.45911
     285      444        3     0.03923   -2.85042    6.51398   28.44061
     286      444        3     0.03923   -2.48693    5.20261   28.10013
     287      444        3     0.64541    2.55960    5.48064   19.72733
     288      444        3    -0.10595    1.40895    6.00245   18.86601
     289      444        3     0.03923    0.19299    6.38039   19.45408
     290      444        3     0.03923   -0.87158    6.84233   18.66993
     291      444        3     0.64541   -7.66263    8.80924   22.21784
     292      444        3    -0.10595   -6.92398    9.91372   22.97235
     293      444        3     0.03923   -5.62201   10.26426   22.58832
     294      444        3     0.03923   -4.88624   11.21163   23.30813
     295      444        3    -0.10595   -5.42865   11.83520   24.44017
     296      444        3     0.03923   -6.74944   11.53074   24.79294
     297      444        3     0.03923   -7.48696   10.58552   24.06644
     298      444        3     0.64541   -4.54938   12.73615   25.29877
     299      444        3     0.16039    0.20728    7.17137   33.95856
     300      444        3    -0.05011  -11.71258    7.40278   35.49831
     301      444        3    -0.05011    0.57650    7.91816   36.02511
     302      444        3     0.17675   -1.71151    8.31713   35.06168
     303      444        3    -0.23726    3.57243    8.98618   18.19734
     304      444        3     0.17675    2.28474    9.53793   18.21216
     305      444        3    -0.23726   -4.28383    9.39140   35.10253
     306      444        3     0.17675   -3.57242    9.30219   33.90688
     307      444        3    -0.23726   -2.28267    8.77228   33.86929
     308      444        3     0.16039   -3.50739   10.47303   31.70823
     309      444        3    -0.05011   -5.48138    9.61673   32.30081
     310      444        3    -0.05011   -5.56453   10.19680   31.06233
     311      444        3     0.16039    2.11615    9.61222   20.70665
     312      444        3    -0.05011   -0.02063    9.89060   20.92948
     313      444        3    -0.05011    0.20064    9.82191   19.58148
     314      444        3     0.16039    1.89123    7.58863   29.80433
     315      444        3    -0.05011    0.94666    8.86200   31.28805
     316      444        3    -0.05011    0.36773    9.18567   30.08987
     317      444        3    -0.05011    1.69440    5.26491   24.76583
     318      444        3    -0.05011    2.58892    4.76406   23.85355
     319      444        3     0.16039    2.71915    6.92661   23.68457
     320      444        3     0.17675    1.22448    7.64924   25.50443
     321      444        3    -0.23726    1.21391    7.43380   26.88623
     322      444        3     0.17675    0.84425    8.48879   27.72495
     323      444        3    -0.23726    0.44553    9.71603   27.19454
     324      444        3     0.17675    0.39908    9.88147   25.81058
     325      444        3    -0.23726    0.79372    8.85578   24.94564
     326      444        3     0.16039   -0.83605   12.03655   25.91756
     327      444        3    -0.05011    0.40874   11.71640   24.09246
     328      444        3    -0.05011   -0.17564   12.95209   24.05126
     329      444        3     0.64541   -1.85331    3.43319   26.38165
     330      444        3    -0.10595   -2.28907    4.84442   26.75665
     331      444        3     0.03923   -2.47921    5.82752   25.77515
     332      444        3     0.03923   -2.84221    7.13893   26.11419
     333      444        3     0.64541   -7.88840    6.86201   34.48826
     334      444        3    -0.10595   -6.73782    6.34013   35.34975
     335      444        3     0.03923   -5.52186    5.96215   34.76169
     336      444        3     0.03923   -4.45721    5.50023   35.54566
     337      444        3     0.64541    2.33389    3.53283   31.99774
     338      444        3    -0.10595    1.59530    2.42809   31.24359
     339      444        3     0.03923    0.29354    2.07750   31.62690
     340      444        3     0.03923   -0.44238    1.13004   30.90781
     341      444        3    -0.10595    0.10015    0.50646   29.77559
     342      444        3     0.03923    1.42087    0.81105   29.42301
     343      444        3     0.03923    2.15834    1.75629   30.14951
     344      444        3     0.64541   -0.77907   -0.39424   28.91663
     345      444        4    -0.05313   -3.11102    7.00143   30.27764
     346      444        4    -0.05313   -2.26319    3.85678   29.43638
     347      444        4    -0.05313    0.01905    6.25824   21.35418
     348      444        4    -0.05313   -2.51353    7.36514   19.51028
     349      444        4    -0.05313    4.14239   10.19714   24.55565
     350      444        4    -0.05313   -7.51316   12.43588   26.29943
     351      444        4    -0.05313   -4.85310    9.40482   21.06050
     352      444        4    -0.05313   -3.08874   11.65334   22.80519
     353      444        4    -0.05313   -2.21831    5.34019   23.93794
     354      444        4    -0.05313   -3.06606    8.48483   24.77938
     355      444        4    -0.05313   -5.34795    6.08424   32.86159
     356      444        4    -0.05313   -2.81525    4.97743   34.70530
     357      444        4    -0.05313   -9.47101    2.14473   29.66048
     358      444        4    -0.05313    2.18465   -0.09385   27.91634
     359      444        4    -0.05313   -0.47578    2.93698   33.15526
     360      444        4    -0.05313   -2.23944    0.68837   31.40913
     361      444        5    -0.40549   -6.82052    5.40102   20.00293
     362      444        5     0.02137   -4.93793    4.56198   19.18444
     363      444        5     0.02137   -6.90387    2.70712   34.78301
     364      444        5    -0.43852   -6.50545    2.57420   32.59087
     365      444        5     0.02137   -1.16989    2.55474   21.51303
     366      444        5    -0.40549   -0.99080    1.60805   23.50711
     367      444        5    -0.40549   -7.22109    4.47872   23.11241
     368      444        5     0.02137   -6.30538    3.97325   25.07504