Created on Tue Feb 06 14:29:37 2018 

        2688 atoms
        3104 bonds
        5376 angles
        7072 dihedrals
        4416 impropers

           6 atom types
           9 bond types
          14 angle types
           5 dihedral types
           1 improper types
           0.000000  46.526000 xlo xhi
           0.000000  31.632000 ylo yhi
           0.000000  31.985965 zlo zhi
          -0.003312   0.046894  -0.007811 xy xz yz

Masses

    1    65.380000000 # Zn4+2
    2     1.007940000 # H_
    3    12.010700000 # C_R
    4    14.006700000 # N_R
    5    14.006700000 # N_2
    6    15.999400000 # O_2

Bond Coeffs

    1      101.478011        2.216443  # Zn4+2 N_R
    2      104.409475        2.122938  # Zn4+2 O_2
    3      357.440381        1.081418  # H_ C_R
    4      462.655054        1.379256  # C_R C_R
    5      391.669513        1.458000  # C_R C_R
    6      714.557442        1.269010  # C_R O_2
    7      578.340382        1.408249  # C_R N_2
    8      663.718927        1.345073  # C_R N_R
    9     1117.637895        1.243512  # N_2 N_2

Angle Coeffs

    1       43.207730               1               4 # O_2 Zn4+2 O_2
    2       42.809957               1               4 # N_R Zn4+2 O_2
    3      117.010657              -1               3 # C_R C_R C_R
    4      101.626578              -1               3 # C_R C_R C_R
    5      148.862838              -1               3 # O_2 C_R C_R
    6      256.805977              -1               3 # O_2 C_R O_2
    7       76.817955              -1               3 # H_ C_R C_R
    8      147.753319              -1               3 # C_R C_R N_2
    9      165.695700              -1               3 # N_R C_R C_R
   10      109.704024              -1               3 # N_R C_R H_
   11       21.958282              -1               3 # Zn4+2 N_R C_R
   12      132.654363              -1               3 # C_R N_R C_R
   13      230.738405              -1               3 # C_R N_2 N_2
   14       28.000941              -1               3 # Zn4+2 O_2 C_R

Dihedral Coeffs

    1        1.497136              -1               2 # C_R C_R C_R C_R
    2        0.555556              -1               2 # C_R C_R C_R O_2
    3        2.245703              -1               2 # O_2 C_R O_2 Zn4+2
    4        0.833333              -1               2 # C_R C_R N_2 N_2
    5        4.871694              -1               2 # C_R N_2 N_2 C_R

Improper Coeffs

    1        2.000000        1.000000       -1.000000        0.000000               0 # C_R C_R C_R C_R

Pair Coeffs

    1        0.124000        2.461553 # Zn4+2 Zn4+2
    2        0.044000        2.571134 # H_ H_
    3        0.105000        3.430851 # C_R C_R
    4        0.069000        3.260689 # N_R N_R
    5        0.069000        3.260689 # N_2 N_2
    6        0.060000        3.118146 # O_2 O_2

Atoms

       1      444        1     0.90181    1.58084   15.80943    9.27241
       2      444        1     0.90181   13.20909   15.81128    9.27497
       3      444        1     0.90181    1.74100   15.80949   12.10621
       4      444        1     0.90181   13.38965    0.00190   12.11053
       5      444        1     0.90181    7.39596   -0.00046    6.72809
       6      444        1     0.90181   19.02800   -0.00155    6.71705
       7      444        1     0.90181    7.56623   15.81397    3.89429
       8      444        1     0.90181   19.19701   15.81247    3.88294
       9      444        2     0.10685    3.44136   11.84955    8.90489
      10      444        2     0.10685   15.04947   11.88442    8.96183
      11      444        2     0.10685    6.84678   11.20743   12.45709
      12      444        2     0.10685   18.51955   11.20911   12.44414
      13      444        2     0.10685    5.35593   13.20053   12.49500
      14      444        2     0.10685   17.05461   13.21971   12.51003
      15      444        2     0.10685   10.03162    9.91165   12.71026
      16      444        2     0.10685   21.70629    9.89836   12.64325
      17      444        2     0.10685   11.44852   11.96742   12.65189
      18      444        2     0.10685   23.10854   11.96331   12.58296
      19      444        2     0.10685    4.86869    9.81605    8.89098
      20      444        2     0.10685   16.46405    9.84120    8.91257
      21      444        2     0.10685    9.64260   13.10925    8.92936
      22      444        2     0.10685   21.19386   13.16219    8.93144
      23      444        2     0.10685    8.13574   11.13423    9.04307
      24      444        2     0.10685   19.70804   11.17208    9.04819
      25      444        2     0.10685    3.44906    3.89694    8.97142
      26      444        2     0.10685   15.09785    3.91863    8.89530
      27      444        2     0.10685    6.90341    4.58851   12.46493
      28      444        2     0.10685   18.51225    4.60519   12.43071
      29      444        2     0.10685    5.44905    2.57106   12.52666
      30      444        2     0.10685   17.03631    2.60151   12.48524
      31      444        2     0.10685   10.09854    5.91423   12.65701
      32      444        2     0.10685   21.68578    5.91100   12.66212
      33      444        2     0.10685   11.50499    3.85295   12.58360
      34      444        2     0.10685   23.10246    3.85432   12.60199
      35      444        2     0.10685    4.85259    5.94674    8.92792
      36      444        2     0.10685   16.51110    5.96274    8.86443
      37      444        2     0.10685    9.58091    2.66478    8.93368
      38      444        2     0.10685   21.28845    2.71108    8.88346
      39      444        2     0.10685    8.09199    4.65119    9.06274
      40      444        2     0.10685   19.78004    4.68527    9.00149
      41      444        2     0.10685    3.95270    0.05542    4.72561
      42      444        2     0.10685   15.59064   15.75647    4.73648
      43      444        2     0.10685   11.22466    0.07302    6.99309
      44      444        2     0.10685   22.85497   15.75912    7.00093
      45      444        2     0.10685    3.74709    0.04110    7.22611
      46      444        2     0.10685   15.37401   15.75548    7.23491
      47      444        2     0.10685   11.28282    0.09314    4.48875
      48      444        2     0.10685   22.90197   15.75822    4.49515
      49      444        2     0.10685   10.79925    0.55205    0.54936
      50      444        2     0.10685   22.44062   15.10510    0.54632
      51      444        2     0.10685   11.14758    0.37106   14.03704
      52      444        2     0.10685   22.78868   15.22790   14.02808
      53      444        2     0.10685    3.52995    0.36821   14.46309
      54      444        2     0.10685   15.24249   15.77549   14.46693
      55      444        2     0.10685    3.35049    0.27216    0.99476
      56      444        2     0.10685   15.06256    0.10481    0.99444
      57      444        2     0.10685    9.93398    7.90575   11.04235
      58      444        2     0.10685   21.56724    7.91961   11.00717
      59      444        2     0.10685    5.02723    7.89110   10.54369
      60      444        2     0.10685   16.65885    7.89835   10.51826
      61      444        2     0.10685    9.26052    3.94233    7.10888
      62      444        2     0.10685   20.87975    3.91534    7.00413
      63      444        2     0.10685    1.08868    4.62367    3.52981
      64      444        2     0.10685   12.67324    4.58362    3.56404
      65      444        2     0.10685   11.19825    2.58180    3.53061
      66      444        2     0.10685   22.88479    2.61699    3.44313
      67      444        2     0.10685    4.26476    5.93221    3.34621
      68      444        2     0.10685   15.86612    5.89788    3.31822
      69      444        2     0.10685    5.68588    3.88375    3.42138
      70      444        2     0.10685   17.28308    3.84345    3.36908
      71      444        2     0.10685   10.68323    5.97899    7.12295
      72      444        2     0.10685   22.29249    5.95891    7.07226
      73      444        2     0.10685    3.79849    2.70178    7.09209
      74      444        2     0.10685   15.43250    2.65424    7.05450
      75      444        2     0.10685    2.29831    4.68248    6.96686
      76      444        2     0.10685   13.93070    4.63225    6.95007
      77      444        2     0.10685    9.26731   11.90104    7.04347
      78      444        2     0.10685   20.88655   11.86906    7.10056
      79      444        2     0.10685    1.05534   11.23853    3.57171
      80      444        2     0.10685   12.71486   11.19329    3.54516
      81      444        2     0.10685   11.24836   13.19941    3.46856
      82      444        2     0.10685   22.84299   13.24137    3.53733
      83      444        2     0.10685    4.26364    9.90756    3.35437
      84      444        2     0.10685   15.91192    9.86916    3.35533
      85      444        2     0.10685    5.67679   11.96414    3.41818
      86      444        2     0.10685   17.33134   11.91867    3.42858
      87      444        2     0.10685   10.67951    9.85756    7.03691
      88      444        2     0.10685   22.30650    9.83061    7.11352
      89      444        2     0.10685    3.77677   13.15967    7.07849
      90      444        2     0.10685   15.42571   13.11451    7.08489
      91      444        2     0.10685    2.27892   11.18151    6.95679
      92      444        2     0.10685   13.92664   11.13488    6.96063
      93      444        2     0.10685    9.79107   15.75826   11.26386
      94      444        2     0.10685   21.41182    0.07845   11.25426
      95      444        2     0.10685    5.41656   15.78962    9.01700
      96      444        2     0.10685   17.04279   15.79565    8.99541
      97      444        2     0.10685    9.57020   15.78631    8.76719
      98      444        2     0.10685   21.19730    0.07470    8.75520
      99      444        2     0.10685    5.47771   15.79116   11.51943
     100      444        2     0.10685   17.09788   15.76872   11.49815
     101      444        2     0.10685    5.59013    1.68076   15.45578
     102      444        2     0.10685   17.16895   14.14109   15.44826
     103      444        2     0.10685    5.92182    1.53979    1.97273
     104      444        2     0.10685   17.51121   14.28700    1.96314
     105      444        2     0.10685    8.76509   14.38923    1.54012
     106      444        2     0.10685   20.44116    1.35399    1.51518
     107      444        2     0.10685    8.58851   14.42983   15.00749
     108      444        2     0.10685   20.25850    1.30105   14.98223
     109      444        2     0.10685    4.12176    7.92454    4.99045
     110      444        2     0.10685   15.75270    7.88380    4.97382
     111      444        2     0.10685   10.84684    7.90277    5.48080
     112      444        2     0.10685   22.47482    7.91383    5.46128
     113      444        3    -0.01883   10.63338   12.66601   10.78887
     114      444        3    -0.01883   22.23605   12.69063   10.75704
     115      444        3     0.65629   11.53092   13.86321   10.72138
     116      444        3     0.65629   23.12701   13.88974   10.69259
     117      444        3    -0.01883    4.32000   12.66104   10.68683
     118      444        3    -0.01883   15.96768   12.68213   10.72969
     119      444        3     0.65629    3.42665   13.86152   10.70586
     120      444        3     0.65629   15.08117   13.88583   10.76744
     121      444        3    -0.01883    5.96042   10.36660   10.67500
     122      444        3    -0.01883   17.59019   10.37731   10.67963
     123      444        3    -0.01883    8.98817   10.37642   10.87731
     124      444        3    -0.01883   20.61343   10.38905   10.84484
     125      444        3    -0.01883    8.17933    9.13229   10.87795
     126      444        3    -0.01883   19.80967    9.14343   10.84916
     127      444        3    -0.01883    6.77452    9.12777   10.70090
     128      444        3    -0.01883   18.40359    9.13815   10.68315
     129      444        3    -0.12374    4.18863   11.69926    9.67943
     130      444        3    -0.12374   15.80993   11.72505    9.72149
     131      444        3    -0.12374    6.09890   11.34537   11.67648
     132      444        3    -0.12374   17.75465   11.35228   11.68111
     133      444        3    -0.12374    5.27558   12.46520   11.69503
     134      444        3    -0.12374   16.94164   12.47905   11.71870
     135      444        3    -0.12374    9.93394   10.62199   11.88774
     136      444        3    -0.12374   21.58318   10.62187   11.83593
     137      444        3    -0.12374   10.72851   11.76626   11.85912
     138      444        3    -0.12374   22.36805   11.77169   11.80698
     139      444        3    -0.12374    4.98627   10.55888    9.68119
     140      444        3    -0.12374   16.59936   10.57921    9.70454
     141      444        3    -0.12374    9.70202   12.42018    9.77011
     142      444        3    -0.12374   21.28106   12.45854    9.75732
     143      444        3    -0.12374    8.87192   11.30610    9.82881
     144      444        3    -0.12374   20.46296   11.33608    9.81649
     145      444        3    -0.01883   10.62756    3.13019   10.75688
     146      444        3    -0.01883   22.28102    3.15472   10.74217
     147      444        3     0.65629   11.51495    1.92830   10.68843
     148      444        3     0.65629   23.17412    1.95541   10.67867
     149      444        3    -0.01883    4.36307    3.10328   10.74361
     150      444        3    -0.01883   15.98884    3.12448   10.67851
     151      444        3     0.65629    3.47514    1.89972   10.78263
     152      444        3     0.65629   15.09823    1.92279   10.71338
     153      444        3    -0.01883    5.97536    5.41774   10.69947
     154      444        3    -0.01883   17.61243    5.42964   10.64781
     155      444        3    -0.01883    8.99925    5.42831   10.86211
     156      444        3    -0.01883   20.63694    5.44246   10.83205
     157      444        3    -0.01883    8.18672    6.66855   10.87491
     158      444        3    -0.01883   19.82131    6.68105   10.84020
     159      444        3    -0.01883    6.78042    6.66337   10.70826
     160      444        3    -0.01883   18.41614    6.67502   10.66732
     161      444        3    -0.12374    4.20614    4.05917    9.73397
     162      444        3    -0.12374   15.84782    4.07863    9.66536
     163      444        3    -0.12374    6.14151    4.44220   11.70047
     164      444        3    -0.12374   17.76254    4.45708   11.65361
     165      444        3    -0.12374    5.33383    3.31109   11.73485
     166      444        3    -0.12374   16.94761    3.33162   11.68143
     167      444        3    -0.12374    9.97430    5.19404   11.84680
     168      444        3    -0.12374   21.58662    5.19981   11.84056
     169      444        3    -0.12374   10.76221    4.04623   11.81034
     170      444        3    -0.12374   22.38096    4.05587   11.81066
     171      444        3    -0.12374    4.98959    5.20960    9.72037
     172      444        3    -0.12374   16.63712    5.22485    9.65800
     173      444        3    -0.12374    9.66973    3.36565    9.76228
     174      444        3    -0.12374   21.34947    3.40033    9.72389
     175      444        3    -0.12374    8.84937    4.48601    9.82929
     176      444        3    -0.12374   20.51895    4.51366    9.78467
     177      444        3     0.23902    1.23951   15.60554    0.94423
     178      444        3     0.23902   12.90646    0.30394    0.94678
     179      444        3    -0.12374    2.97934    0.02552    5.21003
     180      444        3    -0.12374   14.61534   15.79350    5.21627
     181      444        3     0.18533    0.53596   15.77800    6.45941
     182      444        3     0.18533   12.17082    0.05240    6.45605
     183      444        3     0.18533    2.86271    0.01721    6.59359
     184      444        3     0.18533   14.49257   15.79283    6.59918
     185      444        3     0.23902    1.81376   15.80120    4.43661
     186      444        3     0.23902   13.45731    0.03890    4.43805
     187      444        3    -0.12374    0.56233   15.77146    5.07265
     188      444        3    -0.12374   12.20363    0.07120    5.06914
     189      444        3    -0.12374    0.14460   15.35386    0.10987
     190      444        3    -0.12374   11.78693    0.40714    0.11387
     191      444        3     0.18533    0.34195   15.42259   14.72410
     192      444        3     0.18533   11.98586    0.30447   14.73050
     193      444        3     0.18533    2.59492    0.13793   14.97423
     194      444        3     0.18533   14.28731    0.07316   14.97583
     195      444        3    -0.12374    2.48380    0.09063    0.36144
     196      444        3    -0.12374   14.17604    0.15481    0.36544
     197      444        3    -0.12374    8.84531    7.90228   10.96959
     198      444        3    -0.12374   20.47848    7.91493   10.93632
     199      444        3    -0.12374    6.11555    7.89347   10.61678
     200      444        3    -0.12374   17.74731    7.90382   10.58863
     201      444        3    -0.01883    4.82407    3.16119    5.25529
     202      444        3    -0.01883   16.44793    3.12266    5.21499
     203      444        3     0.65629    5.71132    1.95963    5.32550
     204      444        3     0.65629   17.34917    1.92969    5.27880
     205      444        3    -0.01883   10.14634    3.13008    5.33062
     206      444        3    -0.01883   21.79814    3.13325    5.22955
     207      444        3     0.65629    9.25644    1.92892    5.31127
     208      444        3     0.65629   20.91087    1.92922    5.17981
     209      444        3    -0.01883    0.15874    5.44017    5.30167
     210      444        3    -0.01883   11.77841    5.42713    5.34118
     211      444        3    -0.01883    3.18471    5.45071    5.15326
     212      444        3    -0.01883   14.80495    5.41354    5.13599
     213      444        3    -0.01883    2.37183    6.69021    5.14286
     214      444        3    -0.01883   13.99753    6.65829    5.13998
     215      444        3    -0.01883    0.96518    6.68471    5.30311
     216      444        3    -0.01883   12.59280    6.66505    5.31719
     217      444        3    -0.12374   10.00904    4.09282    6.33626
     218      444        3    -0.12374   21.64099    4.08158    6.24654
     219      444        3    -0.12374    0.32502    4.47311    4.29268
     220      444        3    -0.12374   11.92228    4.44694    4.34193
     221      444        3    -0.12374   11.10367    3.32366    4.32322
     222      444        3    -0.12374   22.77439    3.34642    4.24518
     223      444        3    -0.12374    4.15123    5.21543    4.16089
     224      444        3    -0.12374   15.76117    5.17955    4.13275
     225      444        3    -0.12374    4.94488    4.07183    4.19784
     226      444        3    -0.12374   16.55578    4.03575    4.15706
     227      444        3    -0.12374   10.80312    5.23538    6.33322
     228      444        3    -0.12374   22.42995    5.22778    6.27437
     229      444        3    -0.12374    3.87499    3.39913    6.25949
     230      444        3    -0.12374   15.50386    3.35456    6.22495
     231      444        3    -0.12374    3.04859    4.51489    6.19376
     232      444        3    -0.12374   14.67585    4.47032    6.17009
     233      444        3    -0.01883    4.81613   12.68911    5.25018
     234      444        3    -0.01883   16.45984   12.64895    5.25577
     235      444        3     0.65629    5.71271   13.88502    5.31767
     236      444        3     0.65629   17.34259   13.85344    5.32358
     237      444        3    -0.01883   10.17173   12.68319    5.26089
     238      444        3    -0.01883   21.78168   12.68712    5.32966
     239      444        3     0.65629    9.28019   13.88481    5.21099
     240      444        3     0.65629   20.88839   13.88599    5.30983
     241      444        3    -0.01883    0.14904   10.38810    5.33974
     242      444        3    -0.01883   11.79575   10.37526    5.32087
     243      444        3    -0.01883    3.17691   10.39654    5.15598
     244      444        3    -0.01883   14.82156   10.35900    5.15470
     245      444        3    -0.01883    2.36779    9.15334    5.14942
     246      444        3    -0.01883   14.00631    9.12148    5.14446
     247      444        3    -0.01883    0.96166    9.14876    5.31447
     248      444        3    -0.01883   12.60068    9.12923    5.31495
     249      444        3    -0.12374   10.02251   11.73520    6.27964
     250      444        3    -0.12374   21.63841   11.72064    6.33082
     251      444        3    -0.12374    0.29962   11.37243    4.34545
     252      444        3    -0.12374   11.95594   11.34321    4.31283
     253      444        3    -0.12374   11.14254   12.46986    4.27093
     254      444        3    -0.12374   22.74427   12.49641    4.32658
     255      444        3    -0.12374    4.14690   10.62795    4.16537
     256      444        3    -0.12374   15.79367   10.58961    4.16649
     257      444        3    -0.12374    4.93937   11.77274    4.19688
     258      444        3    -0.12374   16.58668   11.73364    4.20216
     259      444        3    -0.12374   10.81182   10.58868    6.30187
     260      444        3    -0.12374   22.43135   10.57726    6.32794
     261      444        3    -0.12374    3.86023   12.45873    6.24942
     262      444        3    -0.12374   15.50664   12.41478    6.25597
     263      444        3    -0.12374    3.03419   11.34187    6.18705
     264      444        3    -0.12374   14.68073   11.29896    6.19072
     265      444        3     0.23902    7.08240    0.16916   15.05419
     266      444        3     0.23902   18.70416   15.60791   15.03932
     267      444        3    -0.12374    8.81407   15.77351   10.78711
     268      444        3    -0.12374   20.43666    0.04815   10.77383
     269      444        3     0.18533    6.36392   15.79232    9.55229
     270      444        3     0.18533   17.98846   15.80815    9.53342
     271      444        3     0.18533    8.68856   15.78618    9.27593
     272      444        3     0.18533   20.31503    0.04996    9.39028
     273      444        3     0.23902    7.65464   15.79086   11.56660
     274      444        3     0.23902   19.27598   -0.00231   11.55029
     275      444        3    -0.12374    6.39894   15.79762   10.93920
     276      444        3    -0.12374   18.02020   15.78830   10.92001
     277      444        3    -0.12374    6.30962    0.98638   15.88855
     278      444        3    -0.12374   17.91085   14.81458   15.87623
     279      444        3     0.18533    6.47672    0.91781    1.26952
     280      444        3     0.18533   18.08287   14.89077    1.25753
     281      444        3     0.18533    8.08349   15.06847    1.02659
     282      444        3     0.18533   19.73961    0.69197    1.00436
     283      444        3    -0.12374    7.99434   15.09110   15.63618
     284      444        3    -0.12374   19.64698    0.65991   15.61555
     285      444        3    -0.12374    3.03268    7.92291    5.05666
     286      444        3    -0.12374   14.66413    7.88769    5.04834
     287      444        3    -0.12374    0.30101    7.91507    5.39443
     288      444        3    -0.12374   11.93502    7.89967    5.40611
     289      444        4    -0.28069    1.66268   15.80734    7.21044
     290      444        4    -0.28069   13.29361    0.00713    7.21204
     291      444        5    -0.11919    2.02080    0.01903    3.03803
     292      444        5    -0.11919   13.66600    0.01183    3.03931
     293      444        4    -0.28069    1.53231   15.72353   14.16850
     294      444        4    -0.28069   13.20167    0.13491   14.17410
     295      444        5    -0.11919    0.99510   15.52872    2.33498
     296      444        5    -0.11919   12.66094    0.37651    2.34681
     297      444        4    -0.28069    7.48657   15.79150    8.79454
     298      444        4    -0.28069   19.11444    0.02473    8.77887
     299      444        5    -0.11919    7.86841   15.76779   12.96647
     300      444        5    -0.11919   19.48977    0.00677   12.95000
     301      444        4    -0.28069    7.36002    0.06377    1.82784
     302      444        4    -0.28069   18.99046   15.72205    1.81169
     303      444        5    -0.11919    6.85023    0.26947   13.66073
     304      444        5    -0.11919   18.46487   15.51642   13.64473
     305      444        6    -0.58479    2.93266   14.24795    9.59323
     306      444        6    -0.58479   14.61777   14.30900    9.65512
     307      444        6    -0.58479    0.06821   14.40978    9.54941
     308      444        6    -0.58479   11.75787   14.35396    9.56828
     309      444        6    -0.58479    3.22770   14.40650   11.84040
     310      444        6    -0.58479   14.85624   14.39405   11.91477
     311      444        6    -0.58479    0.35360   14.30277   11.79882
     312      444        6    -0.58479   11.99361   14.30324   11.82681
     313      444        6    -0.58479    3.03105    1.45939    9.66856
     314      444        6    -0.58479   14.60687    1.51892    9.60539
     315      444        6    -0.58479    0.14118    1.46137    9.52734
     316      444        6    -0.58479   11.71190    1.40759    9.54301
     317      444        6    -0.58479    3.22452    1.41270   11.93396
     318      444        6    -0.58479   14.89369    1.39918   11.85688
     319      444        6    -0.58479    0.36504    1.51247   11.78715
     320      444        6    -0.58479   12.00483    1.51104   11.79195
     321      444        6    -0.58479    8.79724    1.51397    6.43030
     322      444        6    -0.58479   20.42431    1.51305    6.28428
     323      444        6    -0.58479    5.93456    1.46107    6.47332
     324      444        6    -0.58479   17.54659    1.40762    6.42278
     325      444        6    -0.58479    9.02366    1.41282    4.17065
     326      444        6    -0.58479   20.70478    1.41327    4.03055
     327      444        6    -0.58479    6.17097    1.51669    4.21575
     328      444        6    -0.58479   17.84843    1.52176    4.17625
     329      444        6    -0.58479    8.79120   14.29954    6.31531
     330      444        6    -0.58479   20.42842   14.30084    6.42742
     331      444        6    -0.58479    5.90165   14.41021    6.46292
     332      444        6    -0.58479   17.56457   14.35359    6.47124
     333      444        6    -0.58479    9.07446   14.40047    4.06126
     334      444        6    -0.58479   20.65601   14.40193    4.16825
     335      444        6    -0.58479    6.22021   14.29072    4.21831
     336      444        6    -0.58479   17.80176   14.29633    4.21527
     337      444        1     0.90181    1.60429   15.80553   25.26539
     338      444        1     0.90181   13.23254   15.80738   25.26795
     339      444        1     0.90181    1.76444   15.80558   28.09919
     340      444        1     0.90181   13.41310   -0.00201   28.10351
     341      444        1     0.90181    7.41941   -0.00436   22.72107
     342      444        1     0.90181   19.05145   -0.00545   22.71003
     343      444        1     0.90181    7.58967   15.81007   19.88727
     344      444        1     0.90181   19.22046   15.80857   19.87592
     345      444        2     0.10685    3.46481   11.84564   24.89787
     346      444        2     0.10685   15.07292   11.88052   24.95481
     347      444        2     0.10685    6.87023   11.20353   28.45008
     348      444        2     0.10685   18.54300   11.20521   28.43712
     349      444        2     0.10685    5.37938   13.19662   28.48798
     350      444        2     0.10685   17.07806   13.21580   28.50301
     351      444        2     0.10685   10.05507    9.90774   28.70325
     352      444        2     0.10685   21.72974    9.89446   28.63623
     353      444        2     0.10685   11.47197   11.96352   28.64487
     354      444        2     0.10685   23.13198   11.95941   28.57594
     355      444        2     0.10685    4.89214    9.81215   24.88396
     356      444        2     0.10685   16.48750    9.83729   24.90555
     357      444        2     0.10685    9.66605   13.10535   24.92234
     358      444        2     0.10685   21.21731   13.15828   24.92442
     359      444        2     0.10685    8.15919   11.13033   25.03605
     360      444        2     0.10685   19.73149   11.16817   25.04117
     361      444        2     0.10685    3.47251    3.89304   24.96441
     362      444        2     0.10685   15.12130    3.91472   24.88828
     363      444        2     0.10685    6.92686    4.58461   28.45791
     364      444        2     0.10685   18.53569    4.60129   28.42369
     365      444        2     0.10685    5.47250    2.56715   28.51965
     366      444        2     0.10685   17.05976    2.59761   28.47822
     367      444        2     0.10685   10.12199    5.91032   28.64999
     368      444        2     0.10685   21.70922    5.90710   28.65511
     369      444        2     0.10685   11.52844    3.84904   28.57658
     370      444        2     0.10685   23.12591    3.85041   28.59497
     371      444        2     0.10685    4.87604    5.94283   24.92090
     372      444        2     0.10685   16.53454    5.95884   24.85741
     373      444        2     0.10685    9.60436    2.66087   24.92666
     374      444        2     0.10685   21.31190    2.70718   24.87644
     375      444        2     0.10685    8.11544    4.64728   25.05573
     376      444        2     0.10685   19.80349    4.68136   24.99447