Created on Tue Feb 06 15:24:23 2018 

        3456 atoms
        4032 bonds
        7168 angles
        8448 dihedrals
        5376 impropers

           5 atom types
           7 bond types
          12 angle types
           3 dihedral types
           1 improper types
           0.000000  44.226000 xlo xhi
           0.000000  43.581405 ylo yhi
           0.000000  28.115380 zlo zhi
           7.581877  -0.316731   1.029366 xy xz yz

Masses

    1    65.380000000 # Zn4+2
    2     1.007940000 # H_
    3    12.010700000 # C_R
    4    14.006700000 # N_R
    5    15.999400000 # O_2

Bond Coeffs

    1      104.409475        2.122938  # Zn4+2 O_2
    2      101.478011        2.216443  # Zn4+2 N_R
    3      357.440381        1.081418  # H_ C_R
    4      714.557442        1.269010  # C_R O_2
    5      391.669513        1.458000  # C_R C_R
    6      462.655054        1.379256  # C_R C_R
    7      663.718927        1.345073  # C_R N_R

Angle Coeffs

    1       42.809957               1               4 # O_2 Zn4+2 N_R
    2       43.207730               1               4 # O_2 Zn4+2 O_2
    3      148.862838              -1               3 # O_2 C_R C_R
    4      256.805977              -1               3 # O_2 C_R O_2
    5      117.010657              -1               3 # C_R C_R C_R
    6      101.626578              -1               3 # C_R C_R C_R
    7       76.817955              -1               3 # H_ C_R C_R
    8      109.704024              -1               3 # H_ C_R N_R
    9      165.695700              -1               3 # C_R C_R N_R
   10       21.958282              -1               3 # C_R N_R Zn4+2
   11      132.654363              -1               3 # C_R N_R C_R
   12       28.000941              -1               3 # Zn4+2 O_2 C_R

Dihedral Coeffs

    1        2.245703              -1               2 # C_R C_R O_2 Zn4+2
    2        0.555556              -1               2 # O_2 C_R C_R C_R
    3        1.497136              -1               2 # C_R C_R C_R C_R

Improper Coeffs

    1        2.000000        1.000000       -1.000000        0.000000               0 # O_2 C_R C_R O_2

Pair Coeffs

    1        0.124000        2.461553 # Zn4+2 Zn4+2
    2        0.044000        2.571134 # H_ H_
    3        0.105000        3.430851 # C_R C_R
    4        0.069000        3.260689 # N_R N_R
    5        0.060000        3.118146 # O_2 O_2

Atoms

       1      444        1     0.92076    8.67519    4.05032   11.35749
       2      444        1     0.92076   10.58237   14.94425   11.35158
       3      444        1     0.92076   19.72743    4.05222   11.35299
       4      444        1     0.92076   21.63743   14.94272   11.35791
       5      444        1     0.92076    8.64415    4.06376    8.49647
       6      444        1     0.92076   10.57069   14.95179    8.49183
       7      444        1     0.92076   19.72105    4.05622    8.49169
       8      444        1     0.92076   21.62701   14.95285    8.49633
       9      444        1     0.92076    4.10804    7.36239    2.69936
      10      444        1     0.92076    6.01764   18.25284    2.70484
      11      444        1     0.92076   15.16312    7.35836    2.70484
      12      444        1     0.92076   17.07002   18.25399    2.69992
      13      444        1     0.92076    4.11847    7.35232    5.56094
      14      444        1     0.92076    6.02397   18.24879    5.56586
      15      444        1     0.92076   15.17504    7.35193    5.56572
      16      444        1     0.92076   17.09961   18.24044    5.56094
      17      444        2     0.10714    9.30236    8.36121    7.82310
      18      444        2     0.10714   11.25367   19.24177    7.81861
      19      444        2     0.10714   20.42547    8.34487    7.82325
      20      444        2     0.10714   22.26865   19.24845    7.82732
      21      444        2     0.10714    9.93538   10.78067    7.87723
      22      444        2     0.10714   11.86080   21.66795    7.87357
      23      444        2     0.10714   21.04131   10.76892    7.87948
      24      444        2     0.10714   22.87423   21.67475    7.88130
      25      444        2     0.10714   10.04904   10.66196   12.16314
      26      444        2     0.10714   11.89399   21.56903   12.16131
      27      444        2     0.10714   21.06098   10.67122   12.16693
      28      444        2     0.10714   22.98713   21.55794   12.16735
      29      444        2     0.10714    9.44047    8.22218   12.11084
      30      444        2     0.10714   11.30842   19.12389   12.10873
      31      444        2     0.10714   20.45529    8.23071   12.11337
      32      444        2     0.10714   22.39514   19.11390   12.11520
      33      444        2     0.10714    4.36654    4.47148    7.77545
      34      444        2     0.10714    6.27054   15.37737    7.77165
      35      444        2     0.10714   15.41487    4.50280    7.76378
      36      444        2     0.10714   17.33400   15.37215    7.76730
      37      444        2     0.10714    1.87738    4.39778    7.76772
      38      444        2     0.10714    3.78132   15.31422    7.78135
      39      444        2     0.10714   12.92681    4.44254    7.76954
      40      444        2     0.10714   14.84465   15.30603    7.76814
      41      444        2     0.10714    1.87342    3.61913   11.98980
      42      444        2     0.10714    3.80448   14.47963   11.99247
      43      444        2     0.10714   12.94342    3.58376   11.97589
      44      444        2     0.10714   14.85400   14.47902   11.97996
      45      444        2     0.10714    4.38637    3.66445   11.99501
      46      444        2     0.10714    6.31704   14.52255   11.98151
      47      444        2     0.10714   15.45499    3.62640   11.96942
      48      444        2     0.10714   17.36682   14.52250   11.97842
      49      444        2     0.10714   10.69899    3.57801    6.42380
      50      444        2     0.10714   12.62438   14.44747    6.41776
      51      444        2     0.10714   21.76075    3.55985    6.40750
      52      444        2     0.10714   23.68776   14.46366    6.42422
      53      444        2     0.10714   10.86285    3.43644    3.93587
      54      444        2     0.10714   12.79019   14.31034    3.92983
      55      444        2     0.10714   21.91455    3.42161    3.91788
      56      444        2     0.10714   23.85188   14.32215    3.93643
      57      444        2     0.10714    6.59293    4.14742    3.78447
      58      444        2     0.10714    8.52231   15.03539    3.77575
      59      444        2     0.10714   17.64577    4.14129    3.78447
      60      444        2     0.10714   19.58001   15.02398    3.78616
      61      444        2     0.10714    6.61205    4.25272    6.27324
      62      444        2     0.10714    8.54060   15.13727    6.26565
      63      444        2     0.10714   17.67541    4.24661    6.27409
      64      444        2     0.10714   19.59955   15.13215    6.27409
      65      444        2     0.10714   10.13855    2.04044    2.04104
      66      444        2     0.10714   12.06861   12.93076    2.02487
      67      444        2     0.10714   21.18247    2.02878    2.02965
      68      444        2     0.10714   23.13951   12.93886    2.03176
      69      444        2     0.10714    9.96259    2.53303   13.59421
      70      444        2     0.10714   11.88229   13.42856   13.57762
      71      444        2     0.10714   21.00556    2.52597   13.58240
      72      444        2     0.10714   22.94848   13.43390   13.58479
      73      444        2     0.10714    7.43012    5.79575   13.43226
      74      444        2     0.10714    9.35128   16.69304   13.43283
      75      444        2     0.10714   18.48556    5.79842   13.42720
      76      444        2     0.10714   20.38718   16.67481   13.44196
      77      444        2     0.10714    7.43591    5.41615    1.87305
      78      444        2     0.10714    9.36436   16.30635    1.87361
      79      444        2     0.10714   18.48717    5.41100    1.86883
      80      444        2     0.10714   20.40393   16.28977    1.88261
      81      444        2     0.10714    3.47622    3.05693    6.23023
      82      444        2     0.10714    5.31920   13.96046    6.23402
      83      444        2     0.10714   14.49210    3.06092    6.24035
      84      444        2     0.10714   16.44246   13.94293    6.23388
      85      444        2     0.10714    2.87109    0.63057    6.17639
      86      444        2     0.10714    4.70369   11.53635    6.17807
      87      444        2     0.10714   13.88419    0.63468    6.18524
      88      444        2     0.10714   15.81092   11.52310    6.17976
      89      444        2     0.10714    2.75841    0.74706    1.88935
      90      444        2     0.10714    4.68482   11.63348    1.89006
      91      444        2     0.10714   13.84903    0.73428    1.89737
      92      444        2     0.10714   15.69955   11.64091    1.89427
      93      444        2     0.10714    3.35010    3.19117    1.94235
      94      444        2     0.10714    5.29032   14.07407    1.94390
      95      444        2     0.10714   14.43427    3.17970    1.95036
      96      444        2     0.10714   16.30607   14.08111    1.94558
      97      444        2     0.10714    8.41190    6.93244    6.28941
      98      444        2     0.10714   10.32992   17.80178    6.29391
      99      444        2     0.10714   19.47625    6.92311    6.28646
     100      444        2     0.10714   21.37849   17.83284    6.28224
     101      444        2     0.10714   10.90118    6.99881    6.28941
     102      444        2     0.10714   12.81798   17.86182    6.28815
     103      444        2     0.10714   21.96509    6.99182    6.27592
     104      444        2     0.10714   23.86758   17.90763    6.28997
     105      444        2     0.10714   10.89170    7.82688    2.07688
     106      444        2     0.10714   12.80125   18.72128    2.08180
     107      444        2     0.10714   21.93894    7.81799    2.06311
     108      444        2     0.10714   23.87122   18.68636    2.06789
     109      444        2     0.10714    8.37894    7.78293    2.07913
     110      444        2     0.10714   10.28963   18.67899    2.08855
     111      444        2     0.10714   19.42672    7.76761    2.07435
     112      444        2     0.10714   21.35835   18.64024    2.06283
     113      444        2     0.10714    2.05758    7.84138    7.63290
     114      444        2     0.10714    3.98424   18.74641    7.65034
     115      444        2     0.10714   13.12092    7.85676    7.64007
     116      444        2     0.10714   15.04600   18.72644    7.63403
     117      444        2     0.10714    1.89346    7.98284   10.12083
     118      444        2     0.10714    3.83042   18.88331   10.13841
     119      444        2     0.10714   12.95524    7.99448   10.12800
     120      444        2     0.10714   14.88263   18.86856   10.12196
     121      444        2     0.10714    6.16533    7.28098   10.27055
     122      444        2     0.10714    8.09793   18.15619   10.27350
     123      444        2     0.10714   17.22315    7.26976   10.28208
     124      444        2     0.10714   19.15257   18.15751   10.27195
     125      444        2     0.10714    6.14582    7.17291    7.78318
     126      444        2     0.10714    8.06834   18.05264    7.78374
     127      444        2     0.10714   17.20482    7.16736    7.79232
     128      444        2     0.10714   19.13294   18.05156    7.78402
     129      444        2     0.10714    2.60582    9.36611   12.02565
     130      444        2     0.10714    4.56504   20.27533   12.02734
     131      444        2     0.10714   13.67644    9.37369   12.03338
     132      444        2     0.10714   15.60718   20.26467   12.01651
     133      444        2     0.10714    2.79698    8.87106    0.47248
     134      444        2     0.10714    4.74242   19.77975    0.47374
     135      444        2     0.10714   13.86285    8.87530    0.48063
     136      444        2     0.10714   15.78278   19.77170    0.46334
     137      444        2     0.10714    5.35852    5.63031    0.61432
     138      444        2     0.10714    7.25722   16.50339    0.63161
     139      444        2     0.10714   16.39518    5.61186    0.62472
     140      444        2     0.10714   18.31514   16.50886    0.62515
     141      444        2     0.10714    5.34148    6.01518   12.17396
     142      444        2     0.10714    7.25397   16.88822   12.19013
     143      444        2     0.10714   16.38161    5.99872   12.18380
     144      444        2     0.10714   18.30966   16.88886   12.18436
     145      444        3     0.67408    8.93719    6.68936    9.93429
     146      444        3     0.67408   10.86239   17.57652    9.93316
     147      444        3     0.67408   20.01371    6.68378    9.93780
     148      444        3     0.67408   21.91079   17.57610    9.93822
     149      444        3    -0.04191    9.32450    8.14302    9.96479
     150      444        3    -0.04191   11.23647   19.03346    9.96142
     151      444        3    -0.04191   20.39544    8.13880    9.96606
     152      444        3    -0.04191   22.28671   19.03231    9.96887
     153      444        3    -0.11191    9.47441    8.86527    8.77130
     154      444        3    -0.11191   11.40249   19.75146    8.76736
     155      444        3    -0.11191   20.57203    8.85478    8.77228
     156      444        3    -0.11191   22.43281   19.75495    8.77523
     157      444        3    -0.11191    9.82823   10.21115    8.79871
     158      444        3    -0.11191   11.74199   21.10117    8.79590
     159      444        3    -0.11191   20.91724   10.20298    8.80152
     160      444        3    -0.11191   22.77203   21.10438    8.80321
     161      444        3    -0.04191   10.03376   10.86377    9.98096
     162      444        3    -0.04191   11.91798   21.76250   10.02032
     163      444        3    -0.04191   21.09273   10.86391   10.02651
     164      444        3    -0.04191   22.97024   21.76068   10.02707
     165      444        3    -0.11191    9.89696   10.14157   11.21804
     166      444        3    -0.11191   11.76462   21.04323   11.21593
     167      444        3    -0.11191   20.93116   10.14598   11.22169
     168      444        3    -0.11191   22.83925   21.03636   11.22225
     169      444        3    -0.11191    9.55026    8.79306   11.18950
     170      444        3    -0.11191   11.43117   19.69155   11.18711
     171      444        3    -0.11191   20.58749    8.79679   11.19203
     172      444        3    -0.11191   22.50297   19.68510   11.19372
     173      444        3     0.67408    8.42246    1.44724   10.04563
     174      444        3     0.67408   10.33822   12.33869   10.04872
     175      444        3     0.67408   19.47557    1.44533   10.05069
     176      444        3     0.67408   21.39436   12.33802   10.05125
     177      444        3     0.67408    6.02745    4.14263    9.89647
     178      444        3     0.67408    7.94567   15.02977    9.87876
     179      444        3     0.67408   17.09061    4.14772    9.87539
     180      444        3     0.67408   19.00168   15.02750    9.87918
     181      444        3    -0.04191    4.52969    4.07564    9.88930
     182      444        3    -0.04191    6.44771   14.95894    9.87960
     183      444        3    -0.04191   15.59101    4.07502    9.87047
     184      444        3    -0.04191   17.50396   14.95629    9.87637
     185      444        3    -0.11191    3.82084    4.27075    8.69524
     186      444        3    -0.11191    5.73070   15.16864    8.69313
     187      444        3    -0.11191   14.87464    4.29009    8.68414
     188      444        3    -0.11191   16.79109   15.16384    8.68695
     189      444        3    -0.11191    2.43131    4.23139    8.69032
     190      444        3    -0.11191    4.34078   15.13388    8.69791
     191      444        3    -0.11191   13.48397    4.25649    8.68667
     192      444        3    -0.11191   15.40130   15.12788    8.68681
     193      444        3    -0.04191    1.72575    3.99486    9.87904
     194      444        3    -0.04191    3.64208   14.88455    9.88818
     195      444        3    -0.04191   12.78248    4.00163    9.87426
     196      444        3    -0.04191   14.69897   14.88042    9.87525
     197      444        3    -0.11191    2.43392    3.79696   11.07310
     198      444        3    -0.11191    4.35888   14.66849   11.07423
     199      444        3    -0.11191   13.49887    3.77779   11.05947
     200      444        3    -0.11191   15.41165   14.66651   11.06425
     201      444        3    -0.11191    3.82458    3.83098   11.07690
     202      444        3    -0.11191    5.74969   14.70057   11.06888
     203      444        3    -0.11191   14.88977    3.80947   11.05651
     204      444        3    -0.11191   16.80239   14.69905   11.06382
     205      444        3     0.67408   11.28106    3.98393    9.88481
     206      444        3     0.67408   13.19874   14.86157    9.87834
     207      444        3     0.67408   22.33934    3.96949    9.87539
     208      444        3     0.67408   24.25450   14.86479    9.89591
     209      444        3     0.16903    9.81775    3.68321    5.79205
     210      444        3     0.16903   11.74415   14.55762    5.78544
     211      444        3     0.16903   20.87744    3.66937    5.77940
     212      444        3     0.16903   22.80649   14.56864    5.79247
     213      444        3    -0.11191    9.89449    3.59909    4.40863
     214      444        3    -0.11191   11.82187   14.47569    4.40188
     215      444        3    -0.11191   20.94845    3.58598    4.39570
     216      444        3    -0.11191   22.88320   14.48393    4.40849
     217      444        3    -0.04191    8.73122    3.77462    3.64474
     218      444        3    -0.04191   10.65998   14.65748    3.63743
     219      444        3    -0.04191   19.78274    3.76448    3.63658
     220      444        3    -0.04191   21.71937   14.65736    3.64530
     221      444        3    -0.11191    7.52810    4.01118    4.32555
     222      444        3    -0.11191    9.45672   14.89521    4.31754
     223      444        3    -0.11191   18.58269    4.00275    4.32204
     224      444        3    -0.11191   20.51591   14.89086    4.32668
     225      444        3     0.16903    7.52752    4.06856    5.71305
     226      444        3     0.16903    9.45536   14.95040    5.70531
     227      444        3     0.16903   18.58781    4.05990    5.70981
     228      444        3     0.16903   20.51537   14.94971    5.71389
     229      444        3    -0.04191    8.77304    3.72646    2.16854
     230      444        3    -0.04191   10.70145   14.61500    2.16109
     231      444        3    -0.04191   19.82131    3.71810    2.16025
     232      444        3    -0.04191   21.75767   14.61115    2.16896
     233      444        3    -0.11191    9.55371    2.77736    1.49096
     234      444        3    -0.11191   11.48127   13.66860    1.47873
     235      444        3    -0.11191   20.59976    2.76838    1.48098
     236      444        3    -0.11191   22.54431   13.67081    1.48618
     237      444        3     0.16903    9.55250    2.75236    0.00000
     238      444        3     0.16903   11.47469   13.64699    0.00000
     239      444        3     0.16903   20.59880    2.74683    0.00000
     240      444        3     0.16903   22.53504   13.64739    0.00000
     241      444        3     0.16903    8.11155    4.56934    0.00000
     242      444        3     0.16903   10.03375   15.46429    0.00000
     243      444        3     0.16903   19.16302    4.56842    0.00000
     244      444        3     0.16903   21.07757   15.45105    0.00000
     245      444        3    -0.11191    8.03497    4.63851    1.39719
     246      444        3    -0.11191    9.96195   15.52990    1.39438
     247      444        3    -0.11191   19.08516    4.63354    1.39115
     248      444        3    -0.11191   21.00777   15.51754    1.39171
     249      444        3     0.67408    3.83437    4.72915    4.11932
     250      444        3     0.67408    5.73149   15.62120    4.11947
     251      444        3     0.67408   14.88262    4.72586    4.12453
     252      444        3     0.67408   16.80776   15.61455    4.12298
     253      444        3    -0.04191    3.45841    3.27291    4.08798
     254      444        3    -0.04191    5.34979   14.16620    4.09121
     255      444        3    -0.04191   14.50794    3.26918    4.09739
     256      444        3    -0.04191   16.42118   14.16066    4.09219
     257      444        3    -0.11191    3.31224    2.55035    5.28232
     258      444        3    -0.11191    5.17296   13.45039    5.28499
     259      444        3    -0.11191   14.34260    2.55129    5.29160
     260      444        3    -0.11191   16.27115   13.43858    5.28611
     261      444        3    -0.11191    2.97323    1.20085    5.25434
     262      444        3    -0.11191    4.82790   12.10218    5.25589
     263      444        3    -0.11191   14.00272    1.20169    5.26306
     264      444        3    -0.11191   15.91822   12.09246    5.25828
     265      444        3    -0.04191    2.77520    0.54442    4.03048
     266      444        3    -0.04191    4.65274   11.44110    4.03104
     267      444        3    -0.04191   13.82631    0.54080    4.03835
     268      444        3    -0.04191   15.71439   11.43791    4.03442
     269      444        3    -0.11191    2.90616    1.26872    2.83530
     270      444        3    -0.11191    4.81443   12.15887    2.83572
     271      444        3    -0.11191   13.97882    1.26003    2.84275
     272      444        3    -0.11191   15.85076   12.16149    2.83937
     273      444        3    -0.11191    3.24229    2.62004    2.86383
     274      444        3    -0.11191    5.15801   13.50810    2.86524
     275      444        3    -0.11191   14.31219    2.61155    2.87058
     276      444        3    -0.11191   16.19634   13.51031    2.86791
     277      444        3     0.67408    4.35125    9.96695    4.00532
     278      444        3     0.67408    6.26990   20.85975    4.00700
     279      444        3     0.67408   15.41074    9.96433    4.00925
     280      444        3     0.67408   17.32220   20.85633    4.01235
     281      444        3     0.67408    6.74403    7.27734    4.17823
     282      444        3     0.67408    8.65421   18.15718    4.18258
     283      444        3     0.67408   17.79953    7.26113    4.17907
     284      444        3     0.67408   19.71731   18.16023    4.16108
     285      444        3    -0.04191    8.24179    7.34874    4.18118
     286      444        3    -0.04191   10.15376   18.22997    4.18750
     287      444        3    -0.04191   19.29736    7.33511    4.17724
     288      444        3    -0.04191   21.21509   18.22850    4.16839
     289      444        3    -0.11191    8.95474    7.14099    5.37046
     290      444        3    -0.11191   10.87016   18.01460    5.37285
     291      444        3    -0.11191   20.01523    7.13077    5.36427
     292      444        3    -0.11191   21.92410   18.03381    5.36245
     293      444        3    -0.11191   10.34459    7.17711    5.37060
     294      444        3    -0.11191   12.26082   18.04807    5.37116
     295      444        3    -0.11191   21.40504    7.16888    5.35893
     296      444        3    -0.11191   23.31363   18.07378    5.36737
     297      444        3    -0.04191   11.04690    7.42487    4.18216
     298      444        3    -0.04191   12.96222   18.30292    4.18343
     299      444        3    -0.04191   22.10295    7.41729    4.16796
     300      444        3    -0.04191   24.01917   18.31044    4.17795
     301      444        3    -0.11191   10.33411    7.63909    2.99344
     302      444        3    -0.11191   12.24583   18.52717    2.99836
     303      444        3    -0.11191   21.38527    7.62921    2.98178
     304      444        3    -0.11191   23.31083   18.50827    2.98459
     305      444        3    -0.11191    8.94336    7.60625    2.99288
     306      444        3    -0.11191   10.85492   18.49568    3.00132
     307      444        3    -0.11191   19.99452    7.59299    2.98726
     308      444        3    -0.11191   21.92018   18.47375    2.98079
     309      444        3     0.67408    1.49060    7.43959    4.15981
     310      444        3     0.67408    3.40558   18.33587    4.18230
     311      444        3     0.67408   12.54717    7.44361    4.17795
     312      444        3     0.67408   14.46362   18.32021    4.17288
     313      444        3     0.16903    2.93884    7.73632    8.26480
     314      444        3     0.16903    4.86732   18.63493    8.27717
     315      444        3     0.16903   14.00121    7.74679    8.27239
     316      444        3     0.16903   15.92735   18.62137    8.26564
     317      444        3    -0.11191    2.86213    7.82101    9.64835
     318      444        3    -0.11191    4.79624   18.71754    9.66213
     319      444        3    -0.11191   13.92355    7.82907    9.65595
     320      444        3    -0.11191   15.85090   18.70580    9.64906
     321      444        3    -0.04191    4.02596    7.64760   10.41197
     322      444        3    -0.04191    5.96160   18.53670   10.42097
     323      444        3    -0.04191   15.08546    7.64741   10.42040
     324      444        3    -0.04191   17.01429   18.53035   10.41253
     325      444        3    -0.11191    5.22941    7.41405    9.73059
     326      444        3    -0.11191    7.16125   18.29646    9.73593
     327      444        3    -0.11191   16.28870    7.40971    9.74015
     328      444        3    -0.11191   18.21728   18.29369    9.73186
     329      444        3     0.16903    5.22995    7.35521    8.34324
     330      444        3     0.16903    7.15621   18.24037    8.34746
     331      444        3     0.16903   16.29001    7.35420    8.35252
     332      444        3     0.16903   18.21760   18.23596    8.34422
     333      444        3    -0.04191    3.98771    7.69385   11.88831
     334      444        3    -0.04191    5.92313   18.58350   11.89759
     335      444        3    -0.04191   15.04407    7.68982   11.89674
     336      444        3    -0.04191   16.97258   18.57857   11.88901
     337      444        3    -0.11191    3.20107    8.63417   12.57123
     338      444        3    -0.11191    5.14657   19.53507   12.57643
     339      444        3    -0.11191   14.26405    8.63591   12.57938
     340      444        3    -0.11191   16.19191   19.52765   12.56659
     341      444        3     0.16903    3.21154    8.65410   13.96083
     342      444        3     0.16903    5.14889   19.55428   13.96575
     343      444        3     0.16903   14.27177    8.65398   13.96885
     344      444        3     0.16903   16.19408   19.54866   13.95507
     345      444        3     0.16903    4.66822    6.85339   14.03941
     346      444        3     0.16903    6.58073   17.73345   14.05207
     347      444        3     0.16903   15.71240    6.83998   14.04827
     348      444        3     0.16903   17.63395   17.73493   14.04504
     349      444        3    -0.11191    4.73781    6.78705   12.65431
     350      444        3    -0.11191    6.65777   17.66725   12.66598
     351      444        3    -0.11191   15.78389    6.77498   12.66317
     352      444        3    -0.11191   17.71058   17.66643   12.66021
     353      444        4    -0.28630    8.65544    3.91583    6.43842
     354      444        4    -0.28630   10.58222   14.79418    6.43139
     355      444        4    -0.28630   19.71836    3.90483    6.43097
     356      444        4    -0.28630   21.64400   14.80039    6.43912
     357      444        4    -0.28630    8.68472    4.15268   13.42552
     358      444        4    -0.28630   10.60364   15.04811   13.41821
     359      444        4    -0.28630   19.73452    4.15130   13.41807
     360      444        4    -0.28630   21.65506   15.04192   13.42580
     361      444        4    -0.28630    4.10133    7.50454    7.61814
     362      444        4    -0.28630    6.02611   18.39814    7.62630
     363      444        4    -0.28630   15.16312    7.51008    7.62602
     364      444        4    -0.28630   17.08954   18.38852    7.61885
     365      444        4    -0.28630    4.09060    7.26319    0.63147
     366      444        4    -0.28630    6.01094   18.15261    0.63977
     367      444        4    -0.28630   15.14219    7.25623    0.63962
     368      444        4    -0.28630   17.06054   18.15191    0.63189
     369      444        5    -0.59516    8.82356    6.10214   11.06256
     370      444        5    -0.59516   10.70791   17.00052   11.06200
     371      444        5    -0.59516   19.81389    6.11940   11.06509
     372      444        5    -0.59516   21.76629   16.99559   11.06607
     373      444        5    -0.59516    8.75088    6.15378    8.79309
     374      444        5    -0.59516   10.72230   17.02758    8.79140
     375      444        5    -0.59516   19.91676    6.12456    8.79618
     376      444        5    -0.59516   21.76249   17.03163    8.79547
     377      444        5    -0.59516    8.55222    2.02882    8.92270
     378      444        5    -0.59516   10.43599   12.92449    8.92424
     379      444        5    -0.59516   19.54105    2.03362    8.92523
     380      444        5    -0.59516   21.49444   12.92398    8.92832
     381      444        5    -0.59516    8.49851    2.00396   11.19231
     382      444        5    -0.59516   10.44900   12.89109   11.19400
     383      444        5    -0.59516   19.61345    1.99628   11.19372