Created on Tue Feb 06 14:43:25 2018 

        1792 atoms
        4096 bonds
       25344 angles
        5632 dihedrals
        3840 impropers

           3 atom types
           5 bond types
           8 angle types
           4 dihedral types
           1 improper types
           0.000000  25.198000 xlo xhi
           0.000000  34.372421 ylo yhi
           0.000000  34.973046 zlo zhi
           3.819649   3.664975  15.889863 xy xz yz

Masses

    1   137.327000000 # Ba6+2
    2    12.010700000 # C_R
    3    15.999400000 # O_R

Bond Coeffs

    1       99.935453        2.751925  # Ba6+2 O_R
    2       26.146151        4.554000  # Ba6+2 Ba6+2
    3      523.759376        1.323387  # C_R C_R
    4      646.680887        1.311940  # C_R O_R
    5      391.669513        1.458000  # C_R C_R

Angle Coeffs

    1        2.929909               1               4 # O_R Ba6+2 Ba6+2
    2       11.804980               1               4 # O_R Ba6+2 O_R
    3        1.337205               1               4 # Ba6+2 Ba6+2 Ba6+2
    4      176.874468              -1               3 # C_R C_R O_R
    5      217.450257              -1               3 # O_R C_R O_R
    6      137.761490              -1               3 # O_R C_R C_R
    7       27.455638              -1               3 # Ba6+2 O_R C_R
    8        9.457399              -1               3 # Ba6+2 O_R Ba6+2

Dihedral Coeffs

    1        2.165197              -1               2 # O_R C_R C_R O_R
    2        1.497136              -1               2 # C_R C_R O_R Ba6+2
    3        0.555556              -1               2 # O_R C_R C_R O_R
    4        1.122852              -1               2 # O_R C_R O_R Ba6+2

Improper Coeffs

    1        2.000000        1.000000       -1.000000        0.000000               0 # O_R C_R C_R O_R

Pair Coeffs

    1        0.364000        3.298998 # Ba6+2 Ba6+2
    2        0.105000        3.430851 # C_R C_R
    3        0.060000        3.118146 # O_R O_R

Atoms

       1      444        1     1.59802    5.62580    6.82528    6.12203
       2      444        1     1.59802    6.54210   10.79815   14.86599
       3      444        1     1.59802    6.58073   15.41864    6.12203
       4      444        1     1.59802    7.49701   19.39151   14.86599
       5      444        1     1.59802   11.92528    6.82528    6.12203
       6      444        1     1.59802   12.84155   10.79815   14.86599
       7      444        1     1.59802   12.88026   15.41904    6.12291
       8      444        1     1.59802   13.79647   19.39151   14.86599
       9      444        1     1.66260    6.62997   11.12114    8.16131
      10      444        1     1.66260    7.54615   15.09361   16.90440
      11      444        1     1.66260    7.58487   19.71450    8.16131
      12      444        1     1.66260    8.50108   23.68696   16.90440
      13      444        1     1.66260   12.92943   11.12114    8.16131
      14      444        1     1.66260   13.84562   15.09361   16.90440
      15      444        1     1.66260   13.88435   19.71450    8.16131
      16      444        1     1.66260   14.80053   23.68696   16.90440
      17      444        1     1.59802    2.54465    5.74014    2.62018
      18      444        1     1.59802    3.46085    9.71261   11.36327
      19      444        1     1.59802    3.49956   14.33350    2.62018
      20      444        1     1.59802    4.41574   18.30596   11.36327
      21      444        1     1.59802    8.84410    5.74014    2.62018
      22      444        1     1.59802    9.76029    9.71261   11.36327
      23      444        1     1.59802    9.79903   14.33350    2.62018
      24      444        1     1.59802   10.71521   18.30596   11.36327
      25      444        1     1.66260    1.54058    1.44469    0.58178
      26      444        1     1.66260    2.45678    5.41717    9.32486
      27      444        1     1.66260    2.49551   10.03804    0.58178
      28      444        1     1.66260    3.41168   14.01053    9.32486
      29      444        1     1.66260    7.84004    1.44469    0.58178
      30      444        1     1.66260    8.75624    5.41717    9.32486
      31      444        1     1.66260    8.79496   10.03804    0.58178
      32      444        1     1.66260    9.71114   14.01053    9.32486
      33      444        2     0.57753    2.46792    8.33874    7.22718
      34      444        2     0.57753    3.38419   12.31159   15.97132
      35      444        2     0.57753    3.42290   16.93240    7.22840
      36      444        2     0.57753    4.33905   20.90467   15.97044
      37      444        2     0.57753    8.76746    8.33908    7.22823
      38      444        2     0.57753    9.68367   12.31164   15.97132
      39      444        2     0.57753    9.72238   16.93248    7.22823
      40      444        2     0.57753   10.63859   20.90507   15.97132
      41      444        2     0.57753    3.51130    9.37735    7.70806
      42      444        2     0.57753    4.42733   13.34921   16.44957
      43      444        2     0.57753    4.46617   17.97083    7.70771
      44      444        2     0.57753    5.38239   21.94315   16.45115
      45      444        2     0.57753    9.81073    9.37743    7.70788
      46      444        2     0.57753   10.72694   13.34989   16.45115
      47      444        2     0.57753   10.76566   17.97074    7.70788
      48      444        2     0.57753   11.68186   21.94317   16.45115
      49      444        2     0.55563    1.72374    4.58733    5.96343
      50      444        2     0.55563    2.63995    8.55986   14.70669
      51      444        2     0.55563    2.67866   13.18067    5.96343
      52      444        2     0.55563    3.59486   17.15323   14.70669
      53      444        2     0.55563    8.02320    4.58731    5.96343
      54      444        2     0.55563    8.93941    8.55986   14.70669
      55      444        2     0.55563    8.97811   13.18067    5.96343
      56      444        2     0.55563    9.89431   17.15323   14.70669
      57      444        2     0.55563    3.28275    4.54702    5.98669
      58      444        2     0.55563    4.19894    8.51950   14.72977
      59      444        2     0.55563    4.23767   13.14040    5.98669
      60      444        2     0.55563    5.15385   17.11286   14.72977
      61      444        2     0.55563    9.58222    4.54704    5.98669
      62      444        2     0.55563   10.49840    8.51950   14.72977
      63      444        2     0.55563   10.53712   13.14039    5.98669
      64      444        2     0.55563   11.45332   17.11286   14.72977
      65      444        2     0.57753    5.70254    4.22664    1.51486
      66      444        2     0.57753    6.61867    8.19885   10.25759
      67      444        2     0.57753    6.65745   12.82001    1.51451
      68      444        2     0.57753    7.57363   16.79242   10.25794
      69      444        2     0.57753   12.00198    4.22659    1.51468
      70      444        2     0.57753   12.91818    8.19910   10.25777
      71      444        2     0.57753   12.95690   12.81998    1.51486
      72      444        2     0.57753   13.87304   16.79219   10.25759
      73      444        2     0.57753    4.65910    3.18773    1.03345
      74      444        2     0.57753    5.57543    7.16096    9.77794
      75      444        2     0.57753    5.61382   11.78010    1.03170
      76      444        2     0.57753    6.53036   15.75424    9.77794
      77      444        2     0.57753   10.95872    3.18840    1.03503
      78      444        2     0.57753   11.87491    7.16084    9.77811
      79      444        2     0.57753   11.91361   11.78173    1.03485
      80      444        2     0.57753   12.82981   15.75433    9.77794
      81      444        2     0.55563    6.44680    7.97843    2.77948
      82      444        2     0.55563    7.36298   11.95090   11.52257
      83      444        2     0.55563    7.40172   16.57179    2.77948
      84      444        2     0.55563    8.31790   20.54426   11.52257
      85      444        2     0.55563   12.74626    7.97843    2.77948
      86      444        2     0.55563   13.66245   11.95092   11.52257
      87      444        2     0.55563   13.70117   16.57179    2.77948
      88      444        2     0.55563   14.61736   20.54426   11.52257
      89      444        2     0.55563    4.88779    8.01871    2.75623
      90      444        2     0.55563    5.80395   11.99111   11.49914
      91      444        2     0.55563    5.84269   16.61206    2.75623
      92      444        2     0.55563    6.75887   20.58447   11.49914
      93      444        2     0.55563   11.18724    8.01871    2.75623
      94      444        2     0.55563   12.10342   11.99111   11.49914
      95      444        2     0.55563   12.14215   16.61208    2.75623
      96      444        2     0.55563   13.05832   20.58447   11.49914
      97      444        3    -0.67305    7.57407    8.73058    7.05896
      98      444        3    -0.67305    8.49024   12.70306   15.80205
      99      444        3    -0.67305    8.52897   17.32393    7.05896
     100      444        3    -0.67305    9.44502   21.29588   15.80082
     101      444        3    -0.67305   13.87347    8.73050    7.05878
     102      444        3    -0.67305   14.78970   12.70306   15.80205
     103      444        3    -0.67305   14.82844   17.32391    7.05896
     104      444        3    -0.67305   15.74448   21.29588   15.80082
     105      444        3    -0.67305    2.87705    7.14212    7.08659
     106      444        3    -0.67305    3.79325   11.11456   15.82967
     107      444        3    -0.67305    3.83196   15.73540    7.08659
     108      444        3    -0.67305    4.74815   19.70796   15.82967
     109      444        3    -0.67305    9.17651    7.14207    7.08659
     110      444        3    -0.67305   10.09270   11.11458   15.82967
     111      444        3    -0.67305   10.13143   15.73545    7.08659
     112      444        3    -0.67305   11.04762   19.70797   15.82967
     113      444        3    -0.67305    3.11067   10.24559    8.54566
     114      444        3    -0.67305    4.02685   14.21806   17.28875
     115      444        3    -0.67305    4.06557   18.83895    8.54566
     116      444        3    -0.67305    4.98178   22.81149   17.28893
     117      444        3    -0.67305    9.41012   10.24559    8.54566
     118      444        3    -0.67305   10.32505   14.21258   17.27668
     119      444        3    -0.67305   10.36503   18.83895    8.54566
     120      444        3    -0.67305   11.28125   22.81149   17.28893
     121      444        3    -0.67305    4.69659    9.26398    7.26792
     122      444        3    -0.67305    5.61275   13.23631   16.01066
     123      444        3    -0.67305    5.65155   17.85741    7.26792
     124      444        3    -0.67305    6.56768   21.82986   16.01119
     125      444        3    -0.67305   10.99606    9.26401    7.26792
     126      444        3    -0.67305   11.91220   13.23629   16.01066
     127      444        3    -0.67305   11.95097   17.85738    7.26792
     128      444        3    -0.67305   12.86715   21.82988   16.01119
     129      444        3    -0.74432    1.10665    4.41545    7.07155
     130      444        3    -0.74432    2.02212    8.38481   15.80782
     131      444        3    -0.74432    2.06156   13.00880    7.07155
     132      444        3    -0.74432    2.97703   16.97817   15.80782
     133      444        3    -0.74432    7.40611    4.41543    7.07155
     134      444        3    -0.74432    8.32158    8.38481   15.80782
     135      444        3    -0.74432    8.36101   13.00880    7.07155
     136      444        3    -0.74432    9.27649   16.97817   15.80782
     137      444        3    -0.67305    1.16181    4.88426    4.87647
     138      444        3    -0.67305    2.07800    8.85673   13.61955
     139      444        3    -0.67305    2.11673   13.47762    4.87647
     140      444        3    -0.67305    3.03291   17.45008   13.61955
     141      444        3    -0.67305    7.46128    4.88426    4.87647
     142      444        3    -0.67305    8.37746    8.85673   13.61955
     143      444        3    -0.67305    8.41618   13.47762    4.87647
     144      444        3    -0.67305    9.33238   17.45010   13.61955
     145      444        3    -0.74432    3.85264    4.33743    7.11124
     146      444        3    -0.74432    4.76882    8.30990   15.85433
     147      444        3    -0.74432    4.80755   12.93078    7.11124
     148      444        3    -0.74432    5.72374   16.90327   15.85433
     149      444        3    -0.74432   10.15210    4.33743    7.11124
     150      444        3    -0.74432   11.06828    8.30990   15.85433
     151      444        3    -0.74432   11.10701   12.93078    7.11124
     152      444        3    -0.74432   12.02320   16.90327   15.85433
     153      444        3    -0.67305    3.88647    4.82642    4.91476
     154      444        3    -0.67305    4.80266    8.79889   13.65785
     155      444        3    -0.67305    4.84138   13.41978    4.91476
     156      444        3    -0.67305    5.75757   17.39225   13.65785
     157      444        3    -0.67305   10.18592    4.82642    4.91476
     158      444        3    -0.67305   11.10212    8.79889   13.65785
     159      444        3    -0.67305   11.14084   13.41978    4.91476
     160      444        3    -0.67305   12.05702   17.39225   13.65785
     161      444        3    -0.67305    0.59651    3.83524    1.68413
     162      444        3    -0.67305    1.51269    7.80771   10.42721
     163      444        3    -0.67305    1.55142   12.42860    1.68413
     164      444        3    -0.67305    2.46763   16.40104   10.42721
     165      444        3    -0.67305    6.89597    3.83524    1.68413
     166      444        3    -0.67305    7.81218    7.80769   10.42721
     167      444        3    -0.67305    7.85084   12.42854    1.68395
     168      444        3    -0.67305    8.76706   16.40104   10.42721
     169      444        3    -0.67305    5.29349    5.42364    1.65632
     170      444        3    -0.67305    6.20965    9.39598   10.39924
     171      444        3    -0.67305    6.24840   14.01705    1.65632
     172      444        3    -0.67305    7.16460   17.98952   10.39958
     173      444        3    -0.67305   11.59294    5.42364    1.65632
     174      444        3    -0.67305   12.50914    9.39613   10.39941
     175      444        3    -0.67305   12.54785   14.01698    1.65632
     176      444        3    -0.67305   13.46407   17.98950   10.39958
     177      444        3    -0.67305    5.05988    2.32017    0.19725
     178      444        3    -0.67305    5.97606    6.29264    8.94033
     179      444        3    -0.67305    6.01479   10.91351    0.19725
     180      444        3    -0.67305    6.93098   14.88600    8.94033
     181      444        3    -0.67305   11.35934    2.32017    0.19725
     182      444        3    -0.67305   12.27552    6.29264    8.94033
     183      444        3    -0.67305   12.31424   10.91351    0.19725
     184      444        3    -0.67305   13.23043   14.88600    8.94033
     185      444        3    -0.67305    3.47396    3.30176    1.47499
     186      444        3    -0.67305    4.39017    7.27427   10.21807
     187      444        3    -0.67305    4.42883   11.89507    1.47499
     188      444        3    -0.67305    5.34507   15.86763   10.21807
     189      444        3    -0.67305    9.77341    3.30176    1.47499
     190      444        3    -0.67305   10.68960    7.27423   10.21807
     191      444        3    -0.67305   10.72833   11.89512    1.47499
     192      444        3    -0.67305   11.64453   15.86763   10.21807
     193      444        3    -0.74432    7.06390    8.15031    1.67136
     194      444        3    -0.74432    7.98008   12.12278   10.41445
     195      444        3    -0.74432    8.01880   16.74367    1.67136
     196      444        3    -0.74432    8.93500   20.71614   10.41445
     197      444        3    -0.74432   13.36336    8.15031    1.67136
     198      444        3    -0.74432   14.27954   12.12278   10.41445
     199      444        3    -0.74432   14.31826   16.74367    1.67136
     200      444        3    -0.74432   15.23446   20.71614   10.41445
     201      444        3    -0.67305    7.00873    7.68150    3.86645
     202      444        3    -0.67305    7.92491   11.65395   12.60953
     203      444        3    -0.67305    7.96363   16.27484    3.86645
     204      444        3    -0.67305    8.87983   20.24731   12.60953
     205      444        3    -0.67305   13.30818    7.68148    3.86645
     206      444        3    -0.67305   14.22437   11.65395   12.60953
     207      444        3    -0.67305   14.26309   16.27484    3.86645
     208      444        3    -0.67305   15.17929   20.24731   12.60953
     209      444        3    -0.74432    4.31790    8.22831    1.63167
     210      444        3    -0.74432    5.23409   12.20078   10.37475
     211      444        3    -0.74432    5.27281   16.82167    1.63167
     212      444        3    -0.74432    6.18900   20.79414   10.37475
     213      444        3    -0.74432   10.61736    8.22833    1.63167
     214      444        3    -0.74432   11.53355   12.20078   10.37475
     215      444        3    -0.74432   11.57227   16.82167    1.63167
     216      444        3    -0.74432   12.48847   20.79414   10.37475
     217      444        3    -0.67305    4.28407    7.73934    3.82815
     218      444        3    -0.67305    5.20027   11.71179   12.57124
     219      444        3    -0.67305    5.23898   16.33268    3.82815
     220      444        3    -0.67305    6.15517   20.30516   12.57124
     221      444        3    -0.67305   10.58353    7.73932    3.82815
     222      444        3    -0.67305   11.49972   11.71179   12.57124
     223      444        3    -0.67305   11.53843   16.33268    3.82815
     224      444        3    -0.67305   12.45463   20.30516   12.57124
     225      444        1     1.59802    7.45829   14.77021   23.60855
     226      444        1     1.59802    8.37459   18.74308   32.35252
     227      444        1     1.59802    8.41322   23.36358   23.60855
     228      444        1     1.59802    9.32949   27.33645   32.35252
     229      444        1     1.59802   13.75776   14.77021   23.60855
     230      444        1     1.59802   14.67404   18.74308   32.35252
     231      444        1     1.59802   14.71275   23.36397   23.60943
     232      444        1     1.59802   15.62896   27.33645   32.35252
     233      444        1     1.66260    8.46246   19.06607   25.64783
     234      444        1     1.66260    9.37864   23.03855   34.39092
     235      444        1     1.66260    9.41736   27.65944   25.64783
     236      444        1     1.66260   10.33357   31.63189   34.39092
     237      444        1     1.66260   14.76192   19.06607   25.64783
     238      444        1     1.66260   15.67810   23.03855   34.39092
     239      444        1     1.66260   15.71683   27.65944   25.64783
     240      444        1     1.66260   16.63302   31.63189   34.39092
     241      444        1     1.59802    4.37714   13.68507   20.10670
     242      444        1     1.59802    5.29334   17.65754   28.84979
     243      444        1     1.59802    5.33204   22.27843   20.10670
     244      444        1     1.59802    6.24823   26.25089   28.84979
     245      444        1     1.59802   10.67659   13.68507   20.10670
     246      444        1     1.59802   11.59278   17.65754   28.84979
     247      444        1     1.59802   11.63152   22.27843   20.10670
     248      444        1     1.59802   12.54770   26.25089   28.84979
     249      444        1     1.66260    3.37307    9.38963   18.06830
     250      444        1     1.66260    4.28927   13.36210   26.81139
     251      444        1     1.66260    4.32800   17.98297   18.06830
     252      444        1     1.66260    5.24417   21.95546   26.81139
     253      444        1     1.66260    9.67253    9.38963   18.06830
     254      444        1     1.66260   10.58873   13.36210   26.81139
     255      444        1     1.66260   10.62744   17.98297   18.06830
     256      444        1     1.66260   11.54363   21.95546   26.81139
     257      444        2     0.57753    4.30041   16.28367   24.71370
     258      444        2     0.57753    5.21668   20.25652   33.45784
     259      444        2     0.57753    5.25538   24.87733   24.71493
     260      444        2     0.57753    6.17154   28.84960   33.45696
     261      444        2     0.57753   10.59995   16.28401   24.71475
     262      444        2     0.57753   11.51616   20.25657   33.45784
     263      444        2     0.57753   11.55487   24.87741   24.71475
     264      444        2     0.57753   12.47108   28.85000   33.45784
     265      444        2     0.57753    5.34379   17.32228   25.19458
     266      444        2     0.57753    6.25982   21.29414   33.93610
     267      444        2     0.57753    6.29866   25.91576   25.19423
     268      444        2     0.57753    7.21488   29.88809   33.93767
     269      444        2     0.57753   11.64322   17.32236   25.19441
     270      444        2     0.57753   12.55943   21.29483   33.93767
     271      444        2     0.57753   12.59814   25.91567   25.19441
     272      444        2     0.57753   13.51435   29.88810   33.93767
     273      444        2     0.55563    3.55623   12.53226   23.44995
     274      444        2     0.55563    4.47243   16.50479   32.19321
     275      444        2     0.55563    4.51115   21.12561   23.44995
     276      444        2     0.55563    5.42735   25.09816   32.19321
     277      444        2     0.55563    9.85569   12.53224   23.44995
     278      444        2     0.55563   10.77189   16.50479   32.19321
     279      444        2     0.55563   10.81059   21.12561   23.44995
     280      444        2     0.55563   11.72680   25.09816   32.19321
     281      444        2     0.55563    5.11524   12.49196   23.47321
     282      444        2     0.55563    6.03143   16.46443   32.21630
     283      444        2     0.55563    6.07016   21.08534   23.47321
     284      444        2     0.55563    6.98634   25.05779   32.21630
     285      444        2     0.55563   11.41471   12.49197   23.47321
     286      444        2     0.55563   12.33089   16.46443   32.21630
     287      444        2     0.55563   12.36961   21.08532   23.47321
     288      444        2     0.55563   13.28580   25.05779   32.21630
     289      444        2     0.57753    7.53502   12.17157   19.00138
     290      444        2     0.57753    8.45116   16.14378   27.74412
     291      444        2     0.57753    8.48993   20.76494   19.00103
     292      444        2     0.57753    9.40612   24.73735   27.74447
     293      444        2     0.57753   13.83447   12.17152   19.00121
     294      444        2     0.57753   14.75067   16.14403   27.74429
     295      444        2     0.57753   14.78939   20.76491   19.00138
     296      444        2     0.57753   15.70552   24.73712   27.74412
     297      444        2     0.57753    6.49158   11.13267   18.51998
     298      444        2     0.57753    7.40791   15.10589   27.26446
     299      444        2     0.57753    7.44630   19.72503   18.51823
     300      444        2     0.57753    8.36285   23.69917   27.26446
     301      444        2     0.57753   12.79120   11.13333   18.52155
     302      444        2     0.57753   13.70740   15.10577   27.26464
     303      444        2     0.57753   13.74609   19.72666   18.52138
     304      444        2     0.57753   14.66229   23.69926   27.26446
     305      444        2     0.55563    8.27929   15.92336   20.26601
     306      444        2     0.55563    9.19547   19.89583   29.00909
     307      444        2     0.55563    9.23420   24.51672   20.26601
     308      444        2     0.55563   10.15039   28.48919   29.00909
     309      444        2     0.55563   14.57875   15.92336   20.26601
     310      444        2     0.55563   15.49494   19.89585   29.00909
     311      444        2     0.55563   15.53365   24.51672   20.26601
     312      444        2     0.55563   16.44985   28.48919   29.00909
     313      444        2     0.55563    6.72028   15.96365   20.24275
     314      444        2     0.55563    7.63644   19.93604   28.98566
     315      444        2     0.55563    7.67518   24.55699   20.24275
     316      444        2     0.55563    8.59136   28.52940   28.98566
     317      444        2     0.55563   13.01973   15.96365   20.24275
     318      444        2     0.55563   13.93590   19.93604   28.98566
     319      444        2     0.55563   13.97464   24.55701   20.24275
     320      444        2     0.55563   14.89081   28.52940   28.98566
     321      444        3    -0.67305    9.40656   16.67551   24.54548
     322      444        3    -0.67305   10.32273   20.64799   33.28857
     323      444        3    -0.67305   10.36146   25.26886   24.54548
     324      444        3    -0.67305   11.27750   29.24081   33.28735
     325      444        3    -0.67305   15.70596   16.67544   24.54531
     326      444        3    -0.67305   16.62219   20.64799   33.28857
     327      444        3    -0.67305   16.66093   25.26884   24.54548
     328      444        3    -0.67305   17.57697   29.24081   33.28735
     329      444        3    -0.67305    4.70954   15.08705   24.57311
     330      444        3    -0.67305    5.62574   19.05949   33.31620
     331      444        3    -0.67305    5.66445   23.68033   24.57311
     332      444        3    -0.67305    6.58064   27.65289   33.31620
     333      444        3    -0.67305   11.00900   15.08700   24.57311
     334      444        3    -0.67305   11.92519   19.05951   33.31620
     335      444        3    -0.67305   11.96392   23.68038   24.57311
     336      444        3    -0.67305   12.88011   27.65290   33.31620
     337      444        3    -0.67305    4.94315   18.19052   26.03219
     338      444        3    -0.67305    5.85934   22.16299   34.77527
     339      444        3    -0.67305    5.89806   26.78389   26.03219
     340      444        3    -0.67305    6.81427   30.75642   34.77545
     341      444        3    -0.67305   11.24260   18.19052   26.03219
     342      444        3    -0.67305   12.15754   22.15751   34.76321
     343      444        3    -0.67305   12.19752   26.78389   26.03219
     344      444        3    -0.67305   13.11373   30.75642   34.77545
     345      444        3    -0.67305    6.52907   17.20891   24.75445
     346      444        3    -0.67305    7.44524   21.18124   33.49718
     347      444        3    -0.67305    7.48403   25.80234   24.75445
     348      444        3    -0.67305    8.40016   29.77479   33.49771
     349      444        3    -0.67305   12.82855   17.20895   24.75445
     350      444        3    -0.67305   13.74468   21.18122   33.49718
     351      444        3    -0.67305   13.78346   25.80231   24.75445
     352      444        3    -0.67305   14.69964   29.77481   33.49771
     353      444        3    -0.74432    2.93914   12.36038   24.55807
     354      444        3    -0.74432    3.85460   16.32974   33.29434
     355      444        3    -0.74432    3.89405   20.95373   24.55807
     356      444        3    -0.74432    4.80952   24.92310   33.29434
     357      444        3    -0.74432    9.23860   12.36036   24.55807
     358      444        3    -0.74432   10.15407   16.32974   33.29434
     359      444        3    -0.74432   10.19350   20.95373   24.55807
     360      444        3    -0.74432   11.10898   24.92310   33.29434
     361      444        3    -0.67305    2.99430   12.82919   22.36299
     362      444        3    -0.67305    3.91049   16.80166   31.10608
     363      444        3    -0.67305    3.94922   21.42256   22.36299
     364      444        3    -0.67305    4.86540   25.39501   31.10608
     365      444        3    -0.67305    9.29376   12.82919   22.36299
     366      444        3    -0.67305   10.20995   16.80166   31.10608
     367      444        3    -0.67305   10.24867   21.42256   22.36299
     368      444        3    -0.67305   11.16486   25.39503   31.10608
     369      444        3    -0.74432    5.68513   12.28236   24.59777
     370      444        3    -0.74432    6.60131   16.25483   33.34085
     371      444        3    -0.74432    6.64004   20.87571   24.59777
     372      444        3    -0.74432    7.55623   24.84820   33.34085
     373      444        3    -0.74432   11.98459   12.28236   24.59777
     374      444        3    -0.74432   12.90077   16.25483   33.34085
     375      444        3    -0.74432   12.93950   20.87571   24.59777
     376      444        3    -0.74432   13.85569   24.84820   33.34085
     377      444        3    -0.67305    5.71896   12.77135   22.40129
     378      444        3    -0.67305    6.63515   16.74382   31.14437
     379      444        3    -0.67305    6.67386   21.36471   22.40129
     380      444        3    -0.67305    7.59006   25.33719   31.14437
     381      444        3    -0.67305   12.01841   12.77135   22.40129
     382      444        3    -0.67305   12.93461   16.74382   31.14437
     383      444        3    -0.67305   12.97333   21.36471   22.40129
     384      444        3    -0.67305   13.88951   25.33719   31.14437
     385      444        3    -0.67305    2.42899   11.78017   19.17065
     386      444        3    -0.67305    3.34518   15.75264   27.91374
     387      444        3    -0.67305    3.38391   20.37353   19.17065
     388      444        3    -0.67305    4.30011   24.34597   27.91374
     389      444        3    -0.67305    8.72846   11.78017   19.17065