Created on Tue Feb 06 15:52:11 2018 

        1872 atoms
        2280 bonds
        4472 angles
        3776 dihedrals
        2304 impropers

           5 atom types
           8 bond types
          14 angle types
           3 dihedral types
           1 improper types
           0.000000  31.166000 xlo xhi
           0.000000  35.555984 ylo yhi
           0.000000  33.851569 zlo zhi
           0.033511   0.000639 -13.951927 xy xz yz

Masses

    1    65.380000000 # Zn4+2
    2     1.007940000 # H_
    3    12.010700000 # C_R
    4    15.999400000 # O_3_z
    5    15.999400000 # O_R

Bond Coeffs

    1      127.647979        1.985391  # Zn4+2 O_R
    2      160.882159        1.838011  # Zn4+2 O_3_z
    3       29.513973        2.680000  # Zn4+2 Zn4+2
    4      850.878848        0.861362  # H_ O_3_z
    5      357.440381        1.081418  # H_ C_R
    6      391.669513        1.458000  # C_R C_R
    7      646.680887        1.311940  # C_R O_R
    8      462.655054        1.379256  # C_R C_R

Angle Coeffs

    1              cosine/periodic       16.537630               1               4 # O_3_z Zn4+2 Zn4+2
    2              cosine/periodic       72.700368               1               4 # O_R Zn4+2 O_3_z
    3              cosine/periodic       14.522240               1               4 # Zn4+2 Zn4+2 O_R
    4              cosine/periodic       60.397389               1               4 # O_R Zn4+2 O_R
    5              cosine/periodic       88.819447               1               4 # O_3_z Zn4+2 O_3_z
    6              cosine/periodic        4.358473               1               4 # Zn4+2 Zn4+2 Zn4+2
    7              cosine/periodic      137.761490              -1               3 # C_R C_R O_R
    8              cosine/periodic      217.450257              -1               3 # O_R C_R O_R
    9              cosine/periodic      117.010657              -1               3 # C_R C_R C_R
   10              cosine/periodic      101.626578              -1               3 # C_R C_R C_R
   11              cosine/periodic       76.817955              -1               3 # C_R C_R H_
   12                      fourier        8.403593        1.898490        2.651251        0.799497 # Zn4+2 O_3_z Zn4+2
   13                      fourier       23.397332        1.898490        2.651251        0.799497 # Zn4+2 O_3_z H_
   14              cosine/periodic       39.831479              -1               3 # Zn4+2 O_R C_R

Dihedral Coeffs

    1        0.555556              -1               2 # O_R C_R C_R C_R
    2        2.245703              -1               2 # O_R C_R O_R Zn4+2
    3        1.497136              -1               2 # C_R C_R C_R C_R

Improper Coeffs

    1        2.000000        1.000000       -1.000000        0.000000               0 # C_R C_R O_R O_R

Pair Coeffs

    1        0.124000        2.461553 # Zn4+2 Zn4+2
    2        0.044000        2.571134 # H_ H_
    3        0.105000        3.430851 # C_R C_R
    4        0.060000        3.118146 # O_3_z O_3_z
    5        0.060000        3.118146 # O_R O_R

Atoms

       1      444        1     1.06672    1.50010   -1.11394    2.81425
       2      444        1     1.06672   14.03519   -1.16073    2.81628
       3      444        1     1.14721    7.81051    7.69083    2.81188
       4      444        1     1.06672    6.30017    8.88458    0.05010
       5      444        1     1.06672    9.29778    6.52192    5.64610
       6      444        1     1.06672    6.25045    6.55750    5.63815
       7      444        1     1.14721    0.00953   -2.28656    5.64813
       8      444        1     1.06672   14.09766   14.28766    8.41127
       9      444        1     1.06672   14.10072   11.91672   14.11001
      10      444        1     1.06672    1.56501   11.95176   14.11069
      11      444        1     1.14721    7.79884    3.11167   14.11170
      12      444        1     1.06672    9.35457    1.91535   16.87365
      13      444        1     1.06672    6.30367    4.27594   11.28087
      14      444        1     1.06672    9.35077    4.25491   11.27867
      15      444        1     1.14721   15.59755   13.08941   11.27782
      16      444        1     1.06672    1.55257   -3.48158    8.51672
      17      444        1     1.14721    0.01711   10.10358   18.61836
      18      444        1     1.14721    7.79955    5.40186    8.46171
      19      444        2     0.49506   15.49896    0.94315    2.31968
      20      444        2     0.49506   15.58425   14.56774    3.32930
      21      444        2     0.49506    7.85149    6.80786    0.46614
      22      444        2     0.10450   13.92599    3.12782    2.20001
      23      444        2     0.10450   10.95200   -3.76552   16.02906
      24      444        2     0.10450   12.41149    4.44749    3.69270
      25      444        2     0.10450    9.43729    4.53280    0.59562
      26      444        2     0.10450   12.82804    8.94246   14.50878
      27      444        2     0.10450   11.72675   13.61759    1.04347
      28      444        2     0.10450   11.61345    7.32254   13.04775
      29      444        2     0.10450   10.52352    5.01148   16.50839
      30      444        2     0.10450    3.95491   11.95443    1.78787
      31      444        2     0.10450    5.85446   10.30435    5.27475
      32      444        2     0.10450    2.62830   13.49058    3.24196
      33      444        2     0.10450    4.47670   11.79341    6.72969
      34      444        2     0.49506    7.71951    4.46203    6.14440
      35      444        2     0.49506    7.77765    8.61443    5.12851
      36      444        2     0.49506    0.00193   -1.40484    7.99642
      37      444        2     0.10450    6.12819    2.28509    6.23614
      38      444        2     0.10450    3.19866    2.15226    9.37418
      39      444        2     0.10450    4.60135    0.97034    4.75259
      40      444        2     0.10450    1.67092    0.83687    7.88911
      41      444        2     0.10450    5.02464    7.25189   10.87820
      42      444        2     0.10450    3.93981    9.56434    7.42026
      43      444        2     0.10450    3.81650    8.87510   12.34093
      44      444        2     0.10450    2.74332   11.19847    8.88316
      45      444        2     0.10450   11.75381   11.22742    6.67231
      46      444        2     0.10450   13.65667   12.86529    3.18188
      47      444        2     0.10450   10.42220    9.69177    5.22279
      48      444        2     0.10450   12.27304   11.37809    1.73049
      49      444        2     0.49506    0.09702    9.85567   14.60695
      50      444        2     0.49506    0.00199   -3.76445   13.59141
      51      444        2     0.49506    7.79728    3.99264   16.46236
      52      444        2     0.10450    1.67724    7.67346   14.72357
      53      444        2     0.10450    4.64760   14.56442    0.89791
      54      444        2     0.10450    3.19187    6.35153   13.23309
      55      444        2     0.10450    6.16189    6.26235   16.33423
      56      444        2     0.10450    2.77730    1.86823    2.41988
      57      444        2     0.10450    3.87600   -2.82733   15.87114
      58      444        2     0.10450    3.99356    3.49646    3.87042
      59      444        2     0.10450    5.08108    5.78732    0.39522
      60      444        2     0.10450   11.66178   -1.15670   15.12285
      61      444        2     0.10450    9.75536    0.49336   11.64003
      62      444        2     0.10450   12.98201   -2.69590   13.66706
      63      444        2     0.10450   11.12866   -0.99757   10.18238
      64      444        2     0.49506    7.87335    6.34291   10.77902
      65      444        2     0.49506    7.83511    2.18998   11.79050
      66      444        2     0.49506    0.02153   12.21250    8.92615
      67      444        2     0.10450    9.47457    8.51647   10.69033
      68      444        2     0.10450   12.40234    8.64788    7.55059
      69      444        2     0.10450   11.00111    9.83416   12.17116
      70      444        2     0.10450   13.92947    9.96729    9.03244
      71      444        2     0.10450   10.57863    3.54502    6.04149
      72      444        2     0.10450   11.65899    1.24182    9.50738
      73      444        2     0.10450   11.78837    1.91763    4.58503
      74      444        2     0.10450   12.85724   -0.39643    8.05041
      75      444        2     0.10450    3.86274   -0.42222   10.26549
      76      444        2     0.10450    1.96078   -2.05509   13.74374
      77      444        2     0.10450    5.19787    1.10922   11.71501
      78      444        2     0.10450    3.35029   -0.57887   15.20833
      79      444        3     0.70369   13.43732   -4.69091   16.60081
      80      444        3    -0.12176   12.53123    3.08662    0.56126
      81      444        3    -0.05617   12.93911    3.43505    1.85676
      82      444        3    -0.05617   11.26353    3.48724    0.10849
      83      444        3    -0.05617   12.09866    4.17032    2.68748
      84      444        3    -0.05617   10.42389    4.22450    0.93769
      85      444        3    -0.12176   10.83115    4.57114    2.23488
      86      444        3     0.70369    9.92426    5.37272    3.12095
      87      444        3     0.70369   13.13516   15.79162    0.27538
      88      444        3    -0.12176   12.36611    7.87731   16.32847
      89      444        3    -0.05617   12.32879    8.07691   14.94056
      90      444        3    -0.05617   11.70140    6.77670   16.89058
      91      444        3    -0.05617   11.64660    7.17981   14.12609
      92      444        3    -0.05617   11.02258    5.87737   16.07679
      93      444        3    -0.12176   10.99256    6.07202   14.68786
      94      444        3     0.70369   10.24845    5.11318   13.81499
      95      444        3     0.70369    5.79440   10.11470    2.57187
      96      444        3    -0.12176    4.98845   11.03334    3.43966
      97      444        3    -0.05617    4.07015   11.92962    2.87027
      98      444        3    -0.05617    5.14228   10.99959    4.83400
      99      444        3    -0.05617    3.32102   12.77594    3.68204
     100      444        3    -0.05617    4.37209   11.82505    5.64695
     101      444        3    -0.12176    3.44981   12.71688    5.07774
     102      444        3     0.70369    2.58678   13.58243    5.94603
     103      444        3     0.70369    5.66913    3.10157    8.77585
     104      444        3    -0.12176    4.75686    2.30041    7.89554
     105      444        3    -0.05617    5.14846    1.96843    6.58988
     106      444        3    -0.05617    3.49782    1.88791    8.36134
     107      444        3    -0.05617    4.30124    1.23543    5.76492
     108      444        3    -0.05617    2.65084    1.15388    7.53654
     109      444        3    -0.12176    3.04173    0.82378    6.23004
     110      444        3     0.70369    2.12847    0.02783    5.34533
     111      444        3     0.70369    5.33617    7.38203    8.18616
     112      444        3    -0.12176    4.57053    8.32260    9.06003
     113      444        3    -0.05617    4.53022    8.12046   10.44761
     114      444        3    -0.05617    3.91204    9.42740    8.49911
     115      444        3    -0.05617    3.85213    9.01998   11.26276
     116      444        3    -0.05617    3.23746   10.32919    9.31375
     117      444        3    -0.12176    3.20417   10.13183   10.70200
     118      444        3     0.70369    2.46257   11.09189   11.57537
     119      444        3     0.70369   13.59448   13.06164    5.88611
     120      444        3    -0.12176   12.78915   12.14209    5.01883
     121      444        3    -0.05617   11.86906   11.24885    5.59008
     122      444        3    -0.05617   12.94296   12.17268    3.62432
     123      444        3    -0.05617   11.11667   10.40346    4.78052
     124      444        3    -0.05617   12.16931   11.34838    2.81340
     125      444        3    -0.12176   11.24483   10.46016    3.38414
     126      444        3     0.70369   10.37657    9.59836    2.51686
     127      444        3     0.70369    2.16364   15.49254    0.32261
     128      444        3    -0.12176    3.07014    7.71366   16.36385
     129      444        3    -0.05617    2.66328    7.36547   15.06716
     130      444        3    -0.05617    4.33684    7.31167   16.81814
     131      444        3    -0.05617    3.50385    6.62862   14.23865
     132      444        3    -0.05617    5.17652    6.57280   15.99030
     133      444        3    -0.12176    4.77032    6.22639   14.69277
     134      444        3     0.70369    5.67692    5.42359   13.80755
     135      444        3     0.70369    2.46569   -4.99353   16.65159
     136      444        3    -0.12176    3.23719    2.92329    0.59376
     137      444        3    -0.05617    3.27597    2.73178    1.98201
     138      444        3    -0.05617    3.90198    4.02028    0.02471
     139      444        3    -0.05617    3.95939    3.63324    2.79123
     140      444        3    -0.05617    4.58199    4.92415    0.83241
     141      444        3    -0.12176    4.61227    4.73828    2.22236
     142      444        3     0.70369    5.35685    5.70353    3.08777
     143      444        3     0.70369    9.83239    0.69174   14.34443
     144      444        3    -0.12176   10.62726   -0.23355   13.47326
     145      444        3    -0.05617   11.54403   -1.13240   14.04095
     146      444        3    -0.05617   10.46818   -0.20218   12.07926
     147      444        3    -0.05617   12.28939   -1.98059   13.22801
     148      444        3    -0.05617   11.23563   -1.02930   11.26496
     149      444        3    -0.12176   12.16001   -1.91987   11.83180
     150      444        3     0.70369   13.02967   -2.77958   10.96452
     151      444        3     0.70369    9.93227    7.69835    8.15078
     152      444        3    -0.12176   10.84484    8.50036    9.03008
     153      444        3    -0.05617   10.45366    8.83362   10.33556
     154      444        3    -0.05617   12.10345    8.91318    8.56326
     155      444        3    -0.05617   11.30091    9.56810   11.15917
     156      444        3    -0.05617   12.95038    9.64893    9.38670
     157      444        3    -0.12176   12.55987    9.98034   10.69286
     158      444        3     0.70369   13.47285   10.77769   11.57673
     159      444        3     0.70369   10.26334    3.42119    8.73472
     160      444        3    -0.12176   11.03008    2.47907    7.86338
     161      444        3    -0.05617   11.07238    2.67744    6.47530
     162      444        3    -0.05617   11.68807    1.37589    8.42819
     163      444        3    -0.05617   11.75138    1.77539    5.66354
     164      444        3    -0.05617   12.36355    0.47166    7.61711
     165      444        3    -0.12176   12.39844    0.66488    6.22835
     166      444        3     0.70369   13.14102   -0.29887    5.35972
     167      444        3     0.70369    2.03014   -2.26239   11.04966
     168      444        3    -0.12176    2.82974   -1.33970   11.91981
     169      444        3    -0.05617    3.74897   -0.44197   11.34028
     170      444        3    -0.05617    2.67579   -1.36950   13.31433
     171      444        3    -0.05617    4.50361    0.39782   12.15796
     172      444        3    -0.05617    3.45305   -0.54786   14.12541
     173      444        3    -0.12176    4.37982    0.33808   13.55468
     174      444        3     0.70369    5.25702    1.19441   14.41806
     175      444        4    -1.01092   15.53392    0.00146    2.06985
     176      444        4    -1.01092   15.59117   15.51431    3.56305
     177      444        4    -1.01092    7.85097    7.74516    0.73475
     178      444        5    -0.62041   14.54736    1.93677    0.00000
     179      444        5    -0.62041   13.00378   -4.90041   15.40280
     180      444        5    -0.62041    8.83621    5.81098    2.64922
     181      444        5    -0.62041   10.33588    5.54200    4.33351
     182      444        5    -0.62041   13.74063    9.78858   16.67274
     183      444        5    -0.62041   13.11819   15.51911    1.53906
     184      444        5    -0.62041    9.65336    4.13461   14.34697
     185      444        5    -0.62041   10.28027    5.36972   12.54928
     186      444        5    -0.62041    6.81884    9.55956    3.06340
     187      444        5    -0.62041    5.37217    9.97100    1.36117
     188      444        5    -0.62041    1.90605   14.49348    5.40390
     189      444        5    -0.62041    2.60952   13.31117    7.21208
     190      444        4    -1.01092    7.75123    5.40509    6.38965
     191      444        4    -1.01092    7.78682    7.66822    4.89324
     192      444        4    -1.01092    0.04298   -2.34228    7.72831
     193      444        5    -0.62041    6.76538    3.52148    8.30599
     194      444        5    -0.62041    5.25417    3.29184    9.98350
     195      444        5    -0.62041    1.04086   -0.40990    5.81892
     196      444        5    -0.62041    2.53580   -0.13699    4.13091
     197      444        5    -0.62041    5.93830    6.40726    8.71543
     198      444        5    -0.62041    5.32021    7.65471    6.92248
     199      444        5    -0.62041    1.86852   12.07149   11.04374
     200      444        5    -0.62041    2.49432   10.83602   12.83990
     201      444        5    -0.62041   14.61623   13.62165    5.39459
     202      444        5    -0.62041   13.17324   13.20090    7.09766
     203      444        5    -0.62041    9.69527    8.68704    3.06035
     204      444        5    -0.62041   10.39590    9.87267    1.25234
     205      444        4    -1.01092    0.06305   10.79748   14.85644
     206      444        4    -1.01092    0.00100   -4.71377   13.36308
     207      444        4    -1.01092    7.80143    3.05669   16.18951
     208      444        5    -0.62041    1.05421    8.91803   16.79292
     209      444        5    -0.62041    2.59617   15.70290    1.52095
     210      444        5    -0.62041    6.76395    4.98382   14.28012
     211      444        5    -0.62041    5.26581    5.25525   12.59448
     212      444        5    -0.62041    1.85846    1.01272    0.25812
     213      444        5    -0.62041    2.48235   -4.72542   15.38706
     214      444        5    -0.62041    5.95491    6.67597    2.54716
     215      444        5    -0.62041    5.32172    5.45741    4.35534
     216      444        5    -0.62041    8.79929    1.24086   13.86526
     217      444        5    -0.62041   10.27636    0.84579   15.54667
     218      444        5    -0.62041   13.71458   -3.68666   11.51004
     219      444        5    -0.62041   13.01244   -2.50862    9.69898
     220      444        4    -1.01092    7.84295    5.40003   10.53309
     221      444        4    -1.01092    7.82231    3.13576   12.02746
     222      444        4    -1.01092    0.01614   13.14855    9.19899
     223      444        5    -0.62041    8.83523    7.28032    8.62064
     224      444        5    -0.62041   10.34745    7.50568    6.94296
     225      444        5    -0.62041   14.55955   11.21738   11.10162
     226      444        5    -0.62041   13.06571   10.94175   12.79149
     227      444        5    -0.62041    9.65906    4.39386    8.20342
     228      444        5    -0.62041   10.28034    3.15244    9.99806
     229      444        5    -0.62041   13.73847   -1.27338    5.89694
     230      444        5    -0.62041   13.10610   -0.05013    4.09282
     231      444        5    -0.62041    0.99956   -2.81479   11.53018
     232      444        5    -0.62041    2.47055   -2.41113    9.84488
     233      444        5    -0.62041    5.93250    2.10812   13.87153
     234      444        5    -0.62041    5.25439    0.91465   15.68174
     235      444        1     1.06672    1.50042   -8.08990   19.74003
     236      444        1     1.06672   14.03551   -8.13669   19.74207
     237      444        1     1.14721    7.81083    0.71486   19.73767
     238      444        1     1.06672    6.30049    1.90862   16.97588
     239      444        1     1.06672    9.29810   -0.45405   22.57189
     240      444        1     1.06672    6.25077   -0.41846   22.56393
     241      444        1     1.14721    0.00985   -9.26253   22.57392
     242      444        1     1.06672   14.09798    7.31170   25.33705
     243      444        1     1.06672   14.10104    4.94075   31.03580
     244      444        1     1.06672    1.56533    4.97580   31.03647
     245      444        1     1.14721    7.79916   -3.86430   31.03749
     246      444        1     1.06672    9.35489   -5.06061   33.79944
     247      444        1     1.06672    6.30399   -2.70002   28.20665
     248      444        1     1.06672    9.35109   -2.72105   28.20445
     249      444        1     1.14721   15.59787    6.11345   28.20360
     250      444        1     1.06672    1.55289  -10.45754   25.44250
     251      444        1     1.14721    0.01743    3.12762   35.54415
     252      444        1     1.14721    7.79987   -1.57411   25.38749
     253      444        2     0.49506   15.49928   -6.03281   19.24546
     254      444        2     0.49506   15.58457    7.59177   20.25509
     255      444        2     0.49506    7.85181   -0.16810   17.39192
     256      444        2     0.10450   13.92631   -3.84814   19.12580
     257      444        2     0.10450   10.95232  -10.74149   32.95484
     258      444        2     0.10450   12.41181   -2.52847   20.61848
     259      444        2     0.10450    9.43761   -2.44317   17.52140
     260      444        2     0.10450   12.82836    1.96650   31.43457
     261      444        2     0.10450   11.72707    6.64162   17.96926
     262      444        2     0.10450   11.61377    0.34658   29.97353
     263      444        2     0.10450   10.52384   -1.96449   33.43418
     264      444        2     0.10450    3.95523    4.97847   18.71366
     265      444        2     0.10450    5.85478    3.32838   22.20054
     266      444        2     0.10450    2.62862    6.51462   20.16775
     267      444        2     0.10450    4.47702    4.81745   23.65548
     268      444        2     0.49506    7.71983   -2.51393   23.07018
     269      444        2     0.49506    7.77797    1.63847   22.05430
     270      444        2     0.49506    0.00225   -8.38080   24.92220
     271      444        2     0.10450    6.12851   -4.69088   23.16192
     272      444        2     0.10450    3.19898   -4.82371   26.29996
     273      444        2     0.10450    4.60167   -6.00562   21.67838
     274      444        2     0.10450    1.67124   -6.13909   24.81489
     275      444        2     0.10450    5.02496    0.27593   27.80399
     276      444        2     0.10450    3.94013    2.58838   24.34605
     277      444        2     0.10450    3.81682    1.89913   29.26671
     278      444        2     0.10450    2.74364    4.22251   25.80894
     279      444        2     0.10450   11.75413    4.25146   23.59810
     280      444        2     0.10450   13.65698    5.88933   20.10766
     281      444        2     0.10450   10.42252    2.71580   22.14857
     282      444        2     0.10450   12.27336    4.40212   18.65628
     283      444        2     0.49506    0.09734    2.87970   31.53274
     284      444        2     0.49506    0.00231  -10.74041   30.51719
     285      444        2     0.49506    7.79760   -2.98332   33.38814
     286      444        2     0.10450    1.67756    0.69750   31.64936
     287      444        2     0.10450    4.64792    7.58845   17.82370
     288      444        2     0.10450    3.19219   -0.62443   30.15887
     289      444        2     0.10450    6.16221   -0.71361   33.26001
     290      444        2     0.10450    2.77762   -5.10774   19.34566
     291      444        2     0.10450    3.87632   -9.80329   32.79692
     292      444        2     0.10450    3.99388   -3.47950   20.79620
     293      444        2     0.10450    5.08140   -1.18865   17.32100
     294      444        2     0.10450   11.66210   -8.13266   32.04863
     295      444        2     0.10450    9.75568   -6.48260   28.56582
     296      444        2     0.10450   12.98233   -9.67187   30.59285
     297      444        2     0.10450   11.12898   -7.97354   27.10817
     298      444        2     0.49506    7.87367   -0.63305   27.70480
     299      444        2     0.49506    7.83543   -4.78598   28.71629
     300      444        2     0.49506    0.02185    5.23653   25.85194
     301      444        2     0.10450    9.47489    1.54050   27.61611
     302      444        2     0.10450   12.40266    1.67192   24.47638
     303      444        2     0.10450   11.00143    2.85820   29.09695
     304      444        2     0.10450   13.92979    2.99133   25.95823
     305      444        2     0.10450   10.57895   -3.43094   22.96727
     306      444        2     0.10450   11.65931   -5.73414   26.43317
     307      444        2     0.10450   11.78868   -5.05833   21.51081
     308      444        2     0.10450   12.85756   -7.37239   24.97620
     309      444        2     0.10450    3.86306   -7.39818   27.19127
     310      444        2     0.10450    1.96110   -9.03105   30.66952
     311      444        2     0.10450    5.19819   -5.86674   28.64080
     312      444        2     0.10450    3.35061   -7.55483   32.13411
     313      444        3     0.70369   13.43764  -11.66687   33.52659
     314      444        3    -0.12176   12.53155   -3.88934   17.48704
     315      444        3    -0.05617   12.93943   -3.54091   18.78254
     316      444        3    -0.05617   11.26385   -3.48873   17.03428
     317      444        3    -0.05617   12.09898   -2.80564   19.61326
     318      444        3    -0.05617   10.42421   -2.75146   17.86347
     319      444        3    -0.12176   10.83147   -2.40483   19.16067
     320      444        3     0.70369    9.92458   -1.60325   20.04673
     321      444        3     0.70369   13.13548    8.81565   17.20117
     322      444        3    -0.12176   12.36643    0.90135   33.25426
     323      444        3    -0.05617   12.32911    1.10094   31.86634
     324      444        3    -0.05617   11.70172   -0.19926   33.81636
     325      444        3    -0.05617   11.64692    0.20385   31.05188
     326      444        3    -0.05617   11.02290   -1.09859   33.00257
     327      444        3    -0.12176   10.99288   -0.90394   31.61364
     328      444        3     0.70369   10.24877   -1.86279   30.74078
     329      444        3     0.70369    5.79472    3.13873   19.49766
     330      444        3    -0.12176    4.98877    4.05738   20.36544
     331      444        3    -0.05617    4.07047    4.95366   19.79606
     332      444        3    -0.05617    5.14259    4.02363   21.75979
     333      444        3    -0.05617    3.32134    5.79997   20.60782
     334      444        3    -0.05617    4.37241    4.84908   22.57273
     335      444        3    -0.12176    3.45013    5.74092   22.00352
     336      444        3     0.70369    2.58710    6.60646   22.87181
     337      444        3     0.70369    5.66945   -3.87440   25.70163
     338      444        3    -0.12176    4.75718   -4.67555   24.82132
     339      444        3    -0.05617    5.14878   -5.00754   23.51567
     340      444        3    -0.05617    3.49814   -5.08805   25.28712
     341      444        3    -0.05617    4.30156   -5.74054   22.69071
     342      444        3    -0.05617    2.65116   -5.82208   24.46233
     343      444        3    -0.12176    3.04205   -6.15219   23.15583
     344      444        3     0.70369    2.12879   -6.94814   22.27112
     345      444        3     0.70369    5.33649    0.40606   25.11194
     346      444        3    -0.12176    4.57085    1.34664   25.98582
     347      444        3    -0.05617    4.53053    1.14450   27.37339
     348      444        3    -0.05617    3.91236    2.45143   25.42490
     349      444        3    -0.05617    3.85245    2.04402   28.18854
     350      444        3    -0.05617    3.23778    3.35322   26.23954
     351      444        3    -0.12176    3.20449    3.15587   27.62779
     352      444        3     0.70369    2.46289    4.11593   28.50116
     353      444        3     0.70369   13.59480    6.08568   22.81190
     354      444        3    -0.12176   12.78947    5.16613   21.94462
     355      444        3    -0.05617   11.86938    4.27289   22.51586
     356      444        3    -0.05617   12.94328    5.19671   20.55010
     357      444        3    -0.05617   11.11699    3.42749   21.70630
     358      444        3    -0.05617   12.16963    4.37241   19.73919
     359      444        3    -0.12176   11.24515    3.48420   20.30993
     360      444        3     0.70369   10.37689    2.62239   19.44265
     361      444        3     0.70369    2.16396    8.51658   17.24839
     362      444        3    -0.12176    3.07046    0.73770   33.28963
     363      444        3    -0.05617    2.66360    0.38950   31.99295
     364      444        3    -0.05617    4.33716    0.33571   33.74392
     365      444        3    -0.05617    3.50417   -0.34735   31.16443
     366      444        3    -0.05617    5.17684   -0.40317   32.91608
     367      444        3    -0.12176    4.77064   -0.74957   31.61855
     368      444        3     0.70369    5.67724   -1.55237   30.73333
     369      444        3     0.70369    2.46601  -11.96949   33.57737
     370      444        3    -0.12176    3.23751   -4.05268   17.51954
     371      444        3    -0.05617    3.27629   -4.24418   18.90779
     372      444        3    -0.05617    3.90230   -2.95568   16.95050
     373      444        3    -0.05617    3.95971   -3.34272   19.71702